
     Program BANDS v.7.5 starts on  2Feb2026 at  0:33:29 

     This program is part of the open-source Quantum ESPRESSO suite
     for quantum simulation of materials; please cite
         "P. Giannozzi et al., J. Phys.:Condens. Matter 21 395502 (2009);
         "P. Giannozzi et al., J. Phys.:Condens. Matter 29 465901 (2017);
         "P. Giannozzi et al., J. Chem. Phys. 152 154105 (2020);
          URL http://www.quantum-espresso.org", 
     in publications or presentations arising from this work. More details at
     http://www.quantum-espresso.org/quote

     Parallel version (MPI), running on    48 processors

     MPI processes distributed on     1 nodes
     R & G space division:  proc/nbgrp/npool/nimage =      48
     275970 MiB available memory on the printing compute node when the environment starts
 

     Reading xml data from directory:

     ./tmp/mos2.save/

     IMPORTANT: XC functional enforced from input :
     Exchange-correlation= PZ
                           (   1   1   0   0   0   0   0)
     Any further DFT definition will be discarded
     Please, verify this is what you really want

 
     Parallelization info
     --------------------
     sticks:   dense  smooth     PW     G-vecs:    dense   smooth      PW
     Min          24      24      7                 5318     5318     861
     Max          25      25      8                 5359     5359     896
     Sum        1159    1159    349               255923   255923   42169
 
     Using Slab Decomposition
 
 ----2D----2D----2D----2D----2D----2D----2D----2D----2D----2D----2D----2D
  The code is running with the 2D cutoff
  Please refer to:
  Sohier, T., Calandra, M., & Mauri, F. (2017), 
  Density functional perturbation theory for gated two-dimensional heterostructu
 res:
  Theoretical developments and application to flexural phonons in graphene.
  Physical Review B, 96(7), 75448. https://doi.org/10.1103/PhysRevB.96.075448
 ----2D----2D----2D----2D----2D----2D----2D----2D----2D----2D----2D----2D
     Reading collected, re-writing distributed wavefunctions
     high-symmetry point:  0.0000 0.0000 0.0000   x coordinate   0.0000
     high-symmetry point:  0.0000 0.5533 0.0000   x coordinate   0.5533
     high-symmetry point:  0.0000-0.5774 0.0000   x coordinate   0.5533
     high-symmetry point:  0.0000-0.0241 0.0000   x coordinate   1.1066
     high-symmetry point:  0.0208 0.0120 0.0000   x coordinate   1.1483
     high-symmetry point:  0.0208 0.5653 0.0000   x coordinate   1.7015
     high-symmetry point:  0.0208-0.5653 0.0000   x coordinate   1.7015
     high-symmetry point:  0.0208-0.0120 0.0000   x coordinate   2.2548
     high-symmetry point:  0.0417 0.0241 0.0000   x coordinate   2.2965
     high-symmetry point:  0.0417 0.5774 0.0000   x coordinate   2.8498
     high-symmetry point:  0.0417-0.5533 0.0000   x coordinate   2.8498
     high-symmetry point:  0.0417-0.0000 0.0000   x coordinate   3.4031
     high-symmetry point:  0.0625 0.0361 0.0000   x coordinate   3.4448
     high-symmetry point:  0.0625 0.5894 0.0000   x coordinate   3.9981
     high-symmetry point:  0.0625-0.5413 0.0000   x coordinate   3.9981
     high-symmetry point:  0.0625 0.0120 0.0000   x coordinate   4.5514
     high-symmetry point:  0.0833 0.0481 0.0000   x coordinate   4.5930
     high-symmetry point:  0.0833 0.6014 0.0000   x coordinate   5.1463
     high-symmetry point:  0.0833-0.5292 0.0000   x coordinate   5.1463
     high-symmetry point:  0.0833 0.0241 0.0000   x coordinate   5.6996
     high-symmetry point:  0.1042 0.0601 0.0000   x coordinate   5.7413
     high-symmetry point:  0.1042 0.6134 0.0000   x coordinate   6.2946
     high-symmetry point:  0.1042-0.5172 0.0000   x coordinate   6.2946
     high-symmetry point:  0.1042 0.0361 0.0000   x coordinate   6.8479
     high-symmetry point:  0.1250 0.0722 0.0000   x coordinate   6.8895
     high-symmetry point:  0.1250 0.6255 0.0000   x coordinate   7.4428
     high-symmetry point:  0.1250-0.5052 0.0000   x coordinate   7.4428
     high-symmetry point:  0.1250 0.0481 0.0000   x coordinate   7.9961
     high-symmetry point:  0.1458 0.0842 0.0000   x coordinate   8.0378
     high-symmetry point:  0.1458 0.6375 0.0000   x coordinate   8.5911
     high-symmetry point:  0.1458-0.4932 0.0000   x coordinate   8.5911
     high-symmetry point:  0.1458 0.0601 0.0000   x coordinate   9.1444
     high-symmetry point:  0.1667 0.0962 0.0000   x coordinate   9.1860
     high-symmetry point:  0.1667 0.6495 0.0000   x coordinate   9.7393
     high-symmetry point:  0.1667-0.4811 0.0000   x coordinate   9.7393
     high-symmetry point:  0.1667 0.0722 0.0000   x coordinate  10.2926
     high-symmetry point:  0.1875 0.1083 0.0000   x coordinate  10.3343
     high-symmetry point:  0.1875 0.6615 0.0000   x coordinate  10.8876
     high-symmetry point:  0.1875-0.4691 0.0000   x coordinate  10.8876
     high-symmetry point:  0.1875 0.0842 0.0000   x coordinate  11.4409
     high-symmetry point:  0.2083 0.1203 0.0000   x coordinate  11.4825
     high-symmetry point:  0.2083 0.6736 0.0000   x coordinate  12.0358
     high-symmetry point:  0.2083-0.4571 0.0000   x coordinate  12.0358
     high-symmetry point:  0.2083 0.0962 0.0000   x coordinate  12.5891
     high-symmetry point:  0.2292 0.1323 0.0000   x coordinate  12.6308
     high-symmetry point:  0.2292 0.6856 0.0000   x coordinate  13.1841
     high-symmetry point:  0.2292-0.4450 0.0000   x coordinate  13.1841
     high-symmetry point:  0.2292 0.1083 0.0000   x coordinate  13.7374
     high-symmetry point:  0.2500 0.1443 0.0000   x coordinate  13.7791
     high-symmetry point:  0.2500 0.6976 0.0000   x coordinate  14.3324
     high-symmetry point:  0.2500-0.4330 0.0000   x coordinate  14.3324
     high-symmetry point:  0.2500 0.1203 0.0000   x coordinate  14.8856
     high-symmetry point:  0.2708 0.1564 0.0000   x coordinate  14.9273
     high-symmetry point:  0.2708 0.7097 0.0000   x coordinate  15.4806
     high-symmetry point:  0.2708-0.4210 0.0000   x coordinate  15.4806
     high-symmetry point:  0.2708 0.1323 0.0000   x coordinate  16.0339
     high-symmetry point:  0.2917 0.1684 0.0000   x coordinate  16.0756
     high-symmetry point:  0.2917 0.7217 0.0000   x coordinate  16.6289
     high-symmetry point:  0.2917-0.4090 0.0000   x coordinate  16.6289
     high-symmetry point:  0.2917 0.1443 0.0000   x coordinate  17.1822
     high-symmetry point:  0.3125 0.1804 0.0000   x coordinate  17.2238
     high-symmetry point:  0.3125 0.7337 0.0000   x coordinate  17.7771
     high-symmetry point:  0.3125-0.3969 0.0000   x coordinate  17.7771
     high-symmetry point:  0.3125 0.1564 0.0000   x coordinate  18.3304
     high-symmetry point:  0.3333 0.1925 0.0000   x coordinate  18.3721
     high-symmetry point:  0.3333 0.7457 0.0000   x coordinate  18.9254
     high-symmetry point:  0.3333-0.3849 0.0000   x coordinate  18.9254
     high-symmetry point:  0.3333 0.1684 0.0000   x coordinate  19.4787
     high-symmetry point:  0.3542 0.2045 0.0000   x coordinate  19.5203
     high-symmetry point:  0.3542 0.7578 0.0000   x coordinate  20.0736
     high-symmetry point:  0.3542-0.3729 0.0000   x coordinate  20.0736
     high-symmetry point:  0.3542 0.1804 0.0000   x coordinate  20.6269
     high-symmetry point:  0.3750 0.2165 0.0000   x coordinate  20.6686
     high-symmetry point:  0.3750 0.7698 0.0000   x coordinate  21.2219
     high-symmetry point:  0.3750-0.3608 0.0000   x coordinate  21.2219
     high-symmetry point:  0.3750 0.1925 0.0000   x coordinate  21.7752
     high-symmetry point:  0.3958 0.2285 0.0000   x coordinate  21.8168
     high-symmetry point:  0.3958 0.7818 0.0000   x coordinate  22.3701
     high-symmetry point:  0.3958-0.3488 0.0000   x coordinate  22.3701
     high-symmetry point:  0.3958 0.2045 0.0000   x coordinate  22.9234
     high-symmetry point:  0.4167 0.2406 0.0000   x coordinate  22.9651
     high-symmetry point:  0.4167 0.7939 0.0000   x coordinate  23.5184
     high-symmetry point:  0.4167-0.3368 0.0000   x coordinate  23.5184
     high-symmetry point:  0.4167 0.2165 0.0000   x coordinate  24.0717
     high-symmetry point:  0.4375 0.2526 0.0000   x coordinate  24.1133
     high-symmetry point:  0.4375 0.8059 0.0000   x coordinate  24.6666
     high-symmetry point:  0.4375-0.3248 0.0000   x coordinate  24.6666
     high-symmetry point:  0.4375 0.2285 0.0000   x coordinate  25.2199
     high-symmetry point:  0.4583 0.2646 0.0000   x coordinate  25.2616
     high-symmetry point:  0.4583 0.8179 0.0000   x coordinate  25.8149
     high-symmetry point:  0.4583-0.3127 0.0000   x coordinate  25.8149
     high-symmetry point:  0.4583 0.2406 0.0000   x coordinate  26.3682
     high-symmetry point:  0.4792 0.2766 0.0000   x coordinate  26.4099
     high-symmetry point:  0.4792 0.8299 0.0000   x coordinate  26.9632
     high-symmetry point:  0.4792-0.3007 0.0000   x coordinate  26.9632
     high-symmetry point:  0.4792 0.2526 0.0000   x coordinate  27.5164
     high-symmetry point: -0.5000-0.2887 0.0000   x coordinate  27.5164
     high-symmetry point: -0.5000 0.2646 0.0000   x coordinate  28.0697
     high-symmetry point: -0.5000-0.8660 0.0000   x coordinate  28.0697
     high-symmetry point: -0.5000-0.3127 0.0000   x coordinate  28.6230
     Message from routine punch_plottable_bands:
     too many lines, exiting
     Bands written to file mos2.bands

 **************************************************************************

                    xk=(   0.00000,   0.00000,   0.00000  )

     point group C_1 (1)    
     there are  1 classes
     the character table:

       E    
A      1.00

     the symmetry operations in each class and the name of the first element:

     E        1
                                                                 

     Band symmetry, C_1 (1)     point group:

     e(  1 -  1) =    -20.41150  eV     1   --> A              
     e(  2 -  2) =    -19.12440  eV     1   --> A              
     e(  3 -  3) =    -11.91928  eV     1   --> A              
     e(  4 -  5) =     -8.78670  eV     2   -->   2 A              
     e(  6 -  6) =     -7.98627  eV     1   --> A              
     e(  7 -  8) =     -7.58298  eV     2   -->   2 A              
     e(  9 -  9) =     -6.28586  eV     1   --> A              
     e( 10 - 11) =     -3.13658  eV     2   -->   2 A              
     e( 12 - 13) =     -2.93934  eV     2   -->   2 A              
     e( 14 - 14) =     -0.55271  eV     1   --> A              
     e( 15 - 15) =     -0.35431  eV     1   --> A              

 **************************************************************************

 **************************************************************************

                    xk=(   0.00000,   0.02406,   0.00000  )

     Band symmetry, C_1 (1)     point group:

     e(  1 -  1) =    -20.40482  eV     1   --> A              
     e(  2 -  2) =    -19.12101  eV     1   --> A              
     e(  3 -  3) =    -11.91143  eV     1   --> A              
     e(  4 -  4) =     -8.80210  eV     1   --> A              
     e(  5 -  5) =     -8.77924  eV     1   --> A              
     e(  6 -  6) =     -8.03641  eV     1   --> A              
     e(  7 -  7) =     -7.59453  eV     1   --> A              
     e(  8 -  8) =     -7.54225  eV     1   --> A              
     e(  9 -  9) =     -6.28778  eV     1   --> A              
     e( 10 - 10) =     -3.15004  eV     1   --> A              
     e( 11 - 11) =     -3.12423  eV     1   --> A              
     e( 12 - 12) =     -2.96342  eV     1   --> A              
     e( 13 - 13) =     -2.94750  eV     1   --> A              
     e( 14 - 14) =     -0.53812  eV     1   --> A              
     e( 15 - 15) =     -0.34542  eV     1   --> A              

 **************************************************************************

 **************************************************************************

                    xk=(   0.00000,   0.04811,   0.00000  )

     Band symmetry, C_1 (1)     point group:

     e(  1 -  1) =    -20.38483  eV     1   --> A              
     e(  2 -  2) =    -19.11088  eV     1   --> A              
     e(  3 -  3) =    -11.88808  eV     1   --> A              
     e(  4 -  4) =     -8.84753  eV     1   --> A              
     e(  5 -  5) =     -8.75694  eV     1   --> A              
     e(  6 -  6) =     -8.15109  eV     1   --> A              
     e(  7 -  7) =     -7.62855  eV     1   --> A              
     e(  8 -  8) =     -7.45644  eV     1   --> A              
     e(  9 -  9) =     -6.29396  eV     1   --> A              
     e( 10 - 10) =     -3.18777  eV     1   --> A              
     e( 11 - 11) =     -3.08792  eV     1   --> A              
     e( 12 - 12) =     -3.03219  eV     1   --> A              
     e( 13 - 13) =     -2.97155  eV     1   --> A              
     e( 14 - 14) =     -0.49657  eV     1   --> A              
     e( 15 - 15) =     -0.31884  eV     1   --> A              

 **************************************************************************

 **************************************************************************

                    xk=(   0.00000,   0.07217,   0.00000  )

     Band symmetry, C_1 (1)     point group:

     e(  1 -  1) =    -20.35170  eV     1   --> A              
     e(  2 -  2) =    -19.09410  eV     1   --> A              
     e(  3 -  3) =    -11.84978  eV     1   --> A              
     e(  4 -  4) =     -8.92074  eV     1   --> A              
     e(  5 -  5) =     -8.72007  eV     1   --> A              
     e(  6 -  6) =     -8.29225  eV     1   --> A              
     e(  7 -  7) =     -7.68328  eV     1   --> A              
     e(  8 -  8) =     -7.36534  eV     1   --> A              
     e(  9 -  9) =     -6.30562  eV     1   --> A              
     e( 10 - 10) =     -3.24245  eV     1   --> A              
     e( 11 - 11) =     -3.13660  eV     1   --> A              
     e( 12 - 12) =     -3.02972  eV     1   --> A              
     e( 13 - 13) =     -3.01030  eV     1   --> A              
     e( 14 - 14) =     -0.43324  eV     1   --> A              
     e( 15 - 15) =     -0.27483  eV     1   --> A              

 **************************************************************************

 **************************************************************************

                    xk=(   0.00000,   0.09623,   0.00000  )

     Band symmetry, C_1 (1)     point group:

     e(  1 -  1) =    -20.30570  eV     1   --> A              
     e(  2 -  2) =    -19.07082  eV     1   --> A              
     e(  3 -  3) =    -11.79754  eV     1   --> A              
     e(  4 -  4) =     -9.01823  eV     1   --> A              
     e(  5 -  5) =     -8.66911  eV     1   --> A              
     e(  6 -  6) =     -8.44551  eV     1   --> A              
     e(  7 -  7) =     -7.75609  eV     1   --> A              
     e(  8 -  8) =     -7.28598  eV     1   --> A              
     e(  9 -  9) =     -6.32476  eV     1   --> A              
     e( 10 - 10) =     -3.30367  eV     1   --> A              
     e( 11 - 11) =     -3.26477  eV     1   --> A              
     e( 12 - 12) =     -3.06190  eV     1   --> A              
     e( 13 - 13) =     -2.95277  eV     1   --> A              
     e( 14 - 14) =     -0.35345  eV     1   --> A              
     e( 15 - 15) =     -0.21378  eV     1   --> A              

 **************************************************************************

 **************************************************************************

                    xk=(   0.00000,   0.12028,   0.00000  )

     Band symmetry, C_1 (1)     point group:

     e(  1 -  1) =    -20.24722  eV     1   --> A              
     e(  2 -  2) =    -19.04125  eV     1   --> A              
     e(  3 -  3) =    -11.73288  eV     1   --> A              
     e(  4 -  4) =     -9.13559  eV     1   --> A              
     e(  5 -  5) =     -8.60546  eV     1   --> A              
     e(  6 -  6) =     -8.60469  eV     1   --> A              
     e(  7 -  7) =     -7.84382  eV     1   --> A              
     e(  8 -  8) =     -7.22669  eV     1   --> A              
     e(  9 -  9) =     -6.35402  eV     1   --> A              
     e( 10 - 10) =     -3.40426  eV     1   --> A              
     e( 11 - 11) =     -3.35996  eV     1   --> A              
     e( 12 - 12) =     -3.12399  eV     1   --> A              
     e( 13 - 13) =     -2.86085  eV     1   --> A              
     e( 14 - 14) =     -0.26089  eV     1   --> A              
     e( 15 - 15) =     -0.13609  eV     1   --> A              

 **************************************************************************

 **************************************************************************

                    xk=(   0.00000,   0.14434,   0.00000  )

     Band symmetry, C_1 (1)     point group:

     e(  1 -  1) =    -20.17678  eV     1   --> A              
     e(  2 -  2) =    -19.00567  eV     1   --> A              
     e(  3 -  3) =    -11.65799  eV     1   --> A              
     e(  4 -  4) =     -9.26773  eV     1   --> A              
     e(  5 -  5) =     -8.76970  eV     1   --> A              
     e(  6 -  6) =     -8.52767  eV     1   --> A              
     e(  7 -  7) =     -7.94315  eV     1   --> A              
     e(  8 -  8) =     -7.19239  eV     1   --> A              
     e(  9 -  9) =     -6.39635  eV     1   --> A              
     e( 10 - 10) =     -3.54332  eV     1   --> A              
     e( 11 - 11) =     -3.40067  eV     1   --> A              
     e( 12 - 12) =     -3.19393  eV     1   --> A              
     e( 13 - 13) =     -2.75803  eV     1   --> A              
     e( 14 - 14) =     -0.15754  eV     1   --> A              
     e( 15 - 15) =     -0.04224  eV     1   --> A              

 **************************************************************************

 **************************************************************************

                    xk=(   0.00000,   0.16839,   0.00000  )

     Band symmetry, C_1 (1)     point group:

     e(  1 -  1) =    -20.09502  eV     1   --> A              
     e(  2 -  2) =    -18.96443  eV     1   --> A              
     e(  3 -  3) =    -11.57596  eV     1   --> A              
     e(  4 -  4) =     -9.40906  eV     1   --> A              
     e(  5 -  5) =     -8.93698  eV     1   --> A              
     e(  6 -  6) =     -8.43914  eV     1   --> A              
     e(  7 -  7) =     -8.05084  eV     1   --> A              
     e(  8 -  8) =     -7.18537  eV     1   --> A              
     e(  9 -  9) =     -6.45448  eV     1   --> A              
     e( 10 - 10) =     -3.67148  eV     1   --> A              
     e( 11 - 11) =     -3.41759  eV     1   --> A              
     e( 12 - 12) =     -3.26894  eV     1   --> A              
     e( 13 - 13) =     -2.64833  eV     1   --> A              
     e( 14 - 14) =     -0.04437  eV     1   --> A              
     e( 15 - 15) =      0.06723  eV     1   --> A              

 **************************************************************************

 **************************************************************************

                    xk=(   0.00000,   0.19245,   0.00000  )

     Band symmetry, C_1 (1)     point group:

     e(  1 -  1) =    -20.00269  eV     1   --> A              
     e(  2 -  2) =    -18.91796  eV     1   --> A              
     e(  3 -  3) =    -11.49110  eV     1   --> A              
     e(  4 -  4) =     -9.55347  eV     1   --> A              
     e(  5 -  5) =     -9.10661  eV     1   --> A              
     e(  6 -  6) =     -8.34037  eV     1   --> A              
     e(  7 -  7) =     -8.16390  eV     1   --> A              
     e(  8 -  8) =     -7.20528  eV     1   --> A              
     e(  9 -  9) =     -6.53000  eV     1   --> A              
     e( 10 - 10) =     -3.78018  eV     1   --> A              
     e( 11 - 11) =     -3.40588  eV     1   --> A              
     e( 12 - 12) =     -3.34623  eV     1   --> A              
     e( 13 - 13) =     -2.53552  eV     1   --> A              
     e( 14 - 14) =      0.07809  eV     1   --> A              
     e( 15 - 15) =      0.19165  eV     1   --> A              

 **************************************************************************

 **************************************************************************

                    xk=(   0.00000,   0.21651,   0.00000  )

     Band symmetry, C_1 (1)     point group:

     e(  1 -  1) =    -19.90070  eV     1   --> A              
     e(  2 -  2) =    -18.86676  eV     1   --> A              
     e(  3 -  3) =    -11.40937  eV     1   --> A              
     e(  4 -  4) =     -9.69413  eV     1   --> A              
     e(  5 -  5) =     -9.27807  eV     1   --> A              
     e(  6 -  6) =     -8.27964  eV     1   --> A              
     e(  7 -  7) =     -8.23291  eV     1   --> A              
     e(  8 -  8) =     -7.24919  eV     1   --> A              
     e(  9 -  9) =     -6.62240  eV     1   --> A              
     e( 10 - 10) =     -3.86342  eV     1   --> A              
     e( 11 - 11) =     -3.42313  eV     1   --> A              
     e( 12 - 12) =     -3.36433  eV     1   --> A              
     e( 13 - 13) =     -2.42294  eV     1   --> A              
     e( 14 - 14) =      0.20923  eV     1   --> A              
     e( 15 - 15) =      0.33015  eV     1   --> A              

 **************************************************************************

 **************************************************************************

                    xk=(   0.00000,   0.24056,   0.00000  )

     Band symmetry, C_1 (1)     point group:

     e(  1 -  1) =    -19.79012  eV     1   --> A              
     e(  2 -  2) =    -18.81144  eV     1   --> A              
     e(  3 -  3) =    -11.33882  eV     1   --> A              
     e(  4 -  4) =     -9.82327  eV     1   --> A              
     e(  5 -  5) =     -9.45084  eV     1   --> A              
     e(  6 -  6) =     -8.39573  eV     1   --> A              
     e(  7 -  7) =     -8.11851  eV     1   --> A              
     e(  8 -  8) =     -7.31223  eV     1   --> A              
     e(  9 -  9) =     -6.72836  eV     1   --> A              
     e( 10 - 10) =     -3.91817  eV     1   --> A              
     e( 11 - 11) =     -3.49713  eV     1   --> A              
     e( 12 - 12) =     -3.29484  eV     1   --> A              
     e( 13 - 13) =     -2.31345  eV     1   --> A              
     e( 14 - 14) =      0.34816  eV     1   --> A              
     e( 15 - 15) =      0.48156  eV     1   --> A              

 **************************************************************************

 **************************************************************************

                    xk=(   0.00000,   0.26462,   0.00000  )

     Band symmetry, C_1 (1)     point group:

     e(  1 -  1) =    -19.67218  eV     1   --> A              
     e(  2 -  2) =    -18.75267  eV     1   --> A              
     e(  3 -  3) =    -11.28946  eV     1   --> A              
     e(  4 -  4) =     -9.93239  eV     1   --> A              
     e(  5 -  5) =     -9.62419  eV     1   --> A              
     e(  6 -  6) =     -8.51016  eV     1   --> A              
     e(  7 -  7) =     -7.99920  eV     1   --> A              
     e(  8 -  8) =     -7.38855  eV     1   --> A              
     e(  9 -  9) =     -6.84165  eV     1   --> A              
     e( 10 - 10) =     -3.94426  eV     1   --> A              
     e( 11 - 11) =     -3.56595  eV     1   --> A              
     e( 12 - 12) =     -3.20147  eV     1   --> A              
     e( 13 - 13) =     -2.20933  eV     1   --> A              
     e( 14 - 14) =      0.49354  eV     1   --> A              
     e( 15 - 15) =      0.64423  eV     1   --> A              

 **************************************************************************

 **************************************************************************

                    xk=(   0.00000,   0.28868,   0.00000  )

     Band symmetry, C_1 (1)     point group:

     e(  1 -  1) =    -19.54829  eV     1   --> A              
     e(  2 -  2) =    -18.69126  eV     1   --> A              
     e(  3 -  3) =    -11.27154  eV     1   --> A              
     e(  4 -  4) =    -10.01395  eV     1   --> A              
     e(  5 -  5) =     -9.79713  eV     1   --> A              
     e(  6 -  6) =     -8.62123  eV     1   --> A              
     e(  7 -  7) =     -7.87719  eV     1   --> A              
     e(  8 -  8) =     -7.47230  eV     1   --> A              
     e(  9 -  9) =     -6.95373  eV     1   --> A              
     e( 10 - 10) =     -3.94373  eV     1   --> A              
     e( 11 - 11) =     -3.62757  eV     1   --> A              
     e( 12 - 12) =     -3.08945  eV     1   --> A              
     e( 13 - 13) =     -2.11234  eV     1   --> A              
     e( 14 - 14) =      0.64337  eV     1   --> A              
     e( 15 - 15) =      0.81578  eV     1   --> A              

 **************************************************************************

 **************************************************************************

                    xk=(   0.00000,   0.31273,   0.00000  )

     Band symmetry, C_1 (1)     point group:

     e(  1 -  1) =    -19.42009  eV     1   --> A              
     e(  2 -  2) =    -18.62808  eV     1   --> A              
     e(  3 -  3) =    -11.29140  eV     1   --> A              
     e(  4 -  4) =    -10.06532  eV     1   --> A              
     e(  5 -  5) =     -9.96832  eV     1   --> A              
     e(  6 -  6) =     -8.72749  eV     1   --> A              
     e(  7 -  7) =     -7.75490  eV     1   --> A              
     e(  8 -  8) =     -7.55830  eV     1   --> A              
     e(  9 -  9) =     -7.05484  eV     1   --> A              
     e( 10 - 10) =     -3.91990  eV     1   --> A              
     e( 11 - 11) =     -3.68030  eV     1   --> A              
     e( 12 - 12) =     -2.96444  eV     1   --> A              
     e( 13 - 13) =     -2.02369  eV     1   --> A              
     e( 14 - 14) =      0.79474  eV     1   --> A              
     e( 15 - 15) =      0.99251  eV     1   --> A              

 **************************************************************************

 **************************************************************************

                    xk=(   0.00000,   0.33679,   0.00000  )

     Band symmetry, C_1 (1)     point group:

     e(  1 -  1) =    -19.28943  eV     1   --> A              
     e(  2 -  2) =    -18.56414  eV     1   --> A              
     e(  3 -  3) =    -11.34754  eV     1   --> A              
     e(  4 -  4) =    -10.13605  eV     1   --> A              
     e(  5 -  5) =    -10.09201  eV     1   --> A              
     e(  6 -  6) =     -8.82773  eV     1   --> A              
     e(  7 -  7) =     -7.64244  eV     1   --> A              
     e(  8 -  8) =     -7.63483  eV     1   --> A              
     e(  9 -  9) =     -7.13536  eV     1   --> A              
     e( 10 - 10) =     -3.87658  eV     1   --> A              
     e( 11 - 11) =     -3.72285  eV     1   --> A              
     e( 12 - 12) =     -2.83208  eV     1   --> A              
     e( 13 - 13) =     -1.94411  eV     1   --> A              
     e( 14 - 14) =      0.94326  eV     1   --> A              
     e( 15 - 15) =      1.16851  eV     1   --> A              

 **************************************************************************

 **************************************************************************

                    xk=(   0.00000,   0.36084,   0.00000  )

     Band symmetry, C_1 (1)     point group:

     e(  1 -  1) =    -19.15840  eV     1   --> A              
     e(  2 -  2) =    -18.50055  eV     1   --> A              
     e(  3 -  3) =    -11.43150  eV     1   --> A              
     e(  4 -  4) =    -10.29827  eV     1   --> A              
     e(  5 -  5) =    -10.10579  eV     1   --> A              
     e(  6 -  6) =     -8.92094  eV     1   --> A              
     e(  7 -  7) =     -7.72168  eV     1   --> A              
     e(  8 -  8) =     -7.51954  eV     1   --> A              
     e(  9 -  9) =     -7.18739  eV     1   --> A              
     e( 10 - 10) =     -3.81757  eV     1   --> A              
     e( 11 - 11) =     -3.75442  eV     1   --> A              
     e( 12 - 12) =     -2.69779  eV     1   --> A              
     e( 13 - 13) =     -1.87390  eV     1   --> A              
     e( 14 - 14) =      1.08083  eV     1   --> A              
     e( 15 - 15) =      1.33394  eV     1   --> A              

 **************************************************************************

 **************************************************************************

                    xk=(   0.00000,   0.38490,   0.00000  )

     Band symmetry, C_1 (1)     point group:

     e(  1 -  1) =    -19.02937  eV     1   --> A              
     e(  2 -  2) =    -18.43850  eV     1   --> A              
     e(  3 -  3) =    -11.53246  eV     1   --> A              
     e(  4 -  4) =    -10.45270  eV     1   --> A              
     e(  5 -  5) =    -10.11864  eV     1   --> A              
     e(  6 -  6) =     -9.00627  eV     1   --> A              
     e(  7 -  7) =     -7.79398  eV     1   --> A              
     e(  8 -  8) =     -7.41143  eV     1   --> A              
     e(  9 -  9) =     -7.20638  eV     1   --> A              
     e( 10 - 10) =     -3.77482  eV     1   --> A              
     e( 11 - 11) =     -3.74639  eV     1   --> A              
     e( 12 - 12) =     -2.56660  eV     1   --> A              
     e( 13 - 13) =     -1.81303  eV     1   --> A              
     e( 14 - 14) =      1.18577  eV     1   --> A              
     e( 15 - 15) =      1.47346  eV     1   --> A              

 **************************************************************************

 **************************************************************************

                    xk=(   0.00000,   0.40896,   0.00000  )

     Band symmetry, C_1 (1)     point group:

     e(  1 -  1) =    -18.90497  eV     1   --> A              
     e(  2 -  2) =    -18.37927  eV     1   --> A              
     e(  3 -  3) =    -11.64072  eV     1   --> A              
     e(  4 -  4) =    -10.59688  eV     1   --> A              
     e(  5 -  5) =    -10.13816  eV     1   --> A              
     e(  6 -  6) =     -9.08301  eV     1   --> A              
     e(  7 -  7) =     -7.85811  eV     1   --> A              
     e(  8 -  8) =     -7.31269  eV     1   --> A              
     e(  9 -  9) =     -7.19233  eV     1   --> A              
     e( 10 - 10) =     -3.78454  eV     1   --> A              
     e( 11 - 11) =     -3.66635  eV     1   --> A              
     e( 12 - 12) =     -2.44308  eV     1   --> A              
     e( 13 - 13) =     -1.76120  eV     1   --> A              
     e( 14 - 14) =      1.18350  eV     1   --> A              
     e( 15 - 15) =      1.56972  eV     1   --> A              

 **************************************************************************

 **************************************************************************

                    xk=(   0.00000,   0.43301,   0.00000  )

     Band symmetry, C_1 (1)     point group:

     e(  1 -  1) =    -18.78806  eV     1   --> A              
     e(  2 -  2) =    -18.32421  eV     1   --> A              
     e(  3 -  3) =    -11.74863  eV     1   --> A              
     e(  4 -  4) =    -10.72831  eV     1   --> A              
     e(  5 -  5) =    -10.16646  eV     1   --> A              
     e(  6 -  6) =     -9.15057  eV     1   --> A              
     e(  7 -  7) =     -7.91346  eV     1   --> A              
     e(  8 -  8) =     -7.22512  eV     1   --> A              
     e(  9 -  9) =     -7.14996  eV     1   --> A              
     e( 10 - 10) =     -3.78486  eV     1   --> A              
     e( 11 - 11) =     -3.58065  eV     1   --> A              
     e( 12 - 12) =     -2.33116  eV     1   --> A              
     e( 13 - 13) =     -1.71793  eV     1   --> A              
     e( 14 - 14) =      1.00549  eV     1   --> A              
     e( 15 - 15) =      1.61817  eV     1   --> A              

 **************************************************************************

 **************************************************************************

                    xk=(   0.00000,   0.45707,   0.00000  )

     Band symmetry, C_1 (1)     point group:

     e(  1 -  1) =    -18.68168  eV     1   --> A              
     e(  2 -  2) =    -18.27465  eV     1   --> A              
     e(  3 -  3) =    -11.85018  eV     1   --> A              
     e(  4 -  4) =    -10.84453  eV     1   --> A              
     e(  5 -  5) =    -10.20142  eV     1   --> A              
     e(  6 -  6) =     -9.20848  eV     1   --> A              
     e(  7 -  7) =     -7.95983  eV     1   --> A              
     e(  8 -  8) =     -7.15003  eV     1   --> A              
     e(  9 -  9) =     -7.08772  eV     1   --> A              
     e( 10 - 10) =     -3.77780  eV     1   --> A              
     e( 11 - 11) =     -3.49273  eV     1   --> A              
     e( 12 - 12) =     -2.23396  eV     1   --> A              
     e( 13 - 13) =     -1.68267  eV     1   --> A              
     e( 14 - 14) =      0.75420  eV     1   --> A              
     e( 15 - 15) =      1.63477  eV     1   --> A              

 **************************************************************************

 **************************************************************************

                    xk=(   0.00000,   0.48113,   0.00000  )

     Band symmetry, C_1 (1)     point group:

     e(  1 -  1) =    -18.58896  eV     1   --> A              
     e(  2 -  2) =    -18.23192  eV     1   --> A              
     e(  3 -  3) =    -11.94049  eV     1   --> A              
     e(  4 -  4) =    -10.94322  eV     1   --> A              
     e(  5 -  5) =    -10.23872  eV     1   --> A              
     e(  6 -  6) =     -9.25636  eV     1   --> A              
     e(  7 -  7) =     -7.99728  eV     1   --> A              
     e(  8 -  8) =     -7.08827  eV     1   --> A              
     e(  9 -  9) =     -7.01620  eV     1   --> A              
     e( 10 - 10) =     -3.76602  eV     1   --> A              
     e( 11 - 11) =     -3.40677  eV     1   --> A              
     e( 12 - 12) =     -2.15360  eV     1   --> A              
     e( 13 - 13) =     -1.65481  eV     1   --> A              
     e( 14 - 14) =      0.50243  eV     1   --> A              
     e( 15 - 15) =      1.63960  eV     1   --> A              

 **************************************************************************

 **************************************************************************

                    xk=(   0.00000,   0.50518,   0.00000  )

     Band symmetry, C_1 (1)     point group:

     e(  1 -  1) =    -18.51294  eV     1   --> A              
     e(  2 -  2) =    -18.19723  eV     1   --> A              
     e(  3 -  3) =    -12.01544  eV     1   --> A              
     e(  4 -  4) =    -11.02233  eV     1   --> A              
     e(  5 -  5) =    -10.27350  eV     1   --> A              
     e(  6 -  6) =     -9.29389  eV     1   --> A              
     e(  7 -  7) =     -8.02604  eV     1   --> A              
     e(  8 -  8) =     -7.04025  eV     1   --> A              
     e(  9 -  9) =     -6.94638  eV     1   --> A              
     e( 10 - 10) =     -3.75249  eV     1   --> A              
     e( 11 - 11) =     -3.32811  eV     1   --> A              
     e( 12 - 12) =     -2.09118  eV     1   --> A              
     e( 13 - 13) =     -1.63380  eV     1   --> A              
     e( 14 - 14) =      0.27945  eV     1   --> A              
     e( 15 - 15) =      1.64380  eV     1   --> A              

 **************************************************************************

 **************************************************************************

                    xk=(   0.00000,   0.52924,   0.00000  )

     Band symmetry, C_1 (1)     point group:

     e(  1 -  1) =    -18.45637  eV     1   --> A              
     e(  2 -  2) =    -18.17163  eV     1   --> A              
     e(  3 -  3) =    -12.07164  eV     1   --> A              
     e(  4 -  4) =    -11.08015  eV     1   --> A              
     e(  5 -  5) =    -10.30153  eV     1   --> A              
     e(  6 -  6) =     -9.32086  eV     1   --> A              
     e(  7 -  7) =     -8.04634  eV     1   --> A              
     e(  8 -  8) =     -7.00607  eV     1   --> A              
     e(  9 -  9) =     -6.88833  eV     1   --> A              
     e( 10 - 10) =     -3.74021  eV     1   --> A              
     e( 11 - 11) =     -3.26353  eV     1   --> A              
     e( 12 - 12) =     -2.04697  eV     1   --> A              
     e( 13 - 13) =     -1.61917  eV     1   --> A              
     e( 14 - 14) =      0.10416  eV     1   --> A              
     e( 15 - 15) =      1.64983  eV     1   --> A              

 **************************************************************************

 **************************************************************************

                    xk=(   0.00000,   0.55329,   0.00000  )

     Band symmetry, C_1 (1)     point group:

     e(  1 -  1) =    -18.42146  eV     1   --> A              
     e(  2 -  2) =    -18.15592  eV     1   --> A              
     e(  3 -  3) =    -12.10648  eV     1   --> A              
     e(  4 -  4) =    -11.11538  eV     1   --> A              
     e(  5 -  5) =    -10.31962  eV     1   --> A              
     e(  6 -  6) =     -9.33711  eV     1   --> A              
     e(  7 -  7) =     -8.05842  eV     1   --> A              
     e(  8 -  8) =     -6.98563  eV     1   --> A              
     e(  9 -  9) =     -6.85004  eV     1   --> A              
     e( 10 - 10) =     -3.73169  eV     1   --> A              
     e( 11 - 11) =     -3.22051  eV     1   --> A              
     e( 12 - 12) =     -2.02070  eV     1   --> A              
     e( 13 - 13) =     -1.61054  eV     1   --> A              
     e( 14 - 14) =     -0.00831  eV     1   --> A              
     e( 15 - 15) =      1.65555  eV     1   --> A              

 **************************************************************************

 **************************************************************************

                    xk=(   0.00000,  -0.57735,   0.00000  )

     Band symmetry, C_1 (1)     point group:

     e(  1 -  1) =    -18.40966  eV     1   --> A              
     e(  2 -  2) =    -18.15063  eV     1   --> A              
     e(  3 -  3) =    -12.11828  eV     1   --> A              
     e(  4 -  4) =    -11.12722  eV     1   --> A              
     e(  5 -  5) =    -10.32586  eV     1   --> A              
     e(  6 -  6) =     -9.34253  eV     1   --> A              
     e(  7 -  7) =     -8.06242  eV     1   --> A              
     e(  8 -  8) =     -6.97884  eV     1   --> A              
     e(  9 -  9) =     -6.83668  eV     1   --> A              
     e( 10 - 10) =     -3.72865  eV     1   --> A              
     e( 11 - 11) =     -3.20534  eV     1   --> A              
     e( 12 - 12) =     -2.01199  eV     1   --> A              
     e( 13 - 13) =     -1.60769  eV     1   --> A              
     e( 14 - 14) =     -0.04714  eV     1   --> A              
     e( 15 - 15) =      1.65791  eV     1   --> A              

 **************************************************************************

 **************************************************************************

                    xk=(   0.00000,  -0.55329,   0.00000  )

     Band symmetry, C_1 (1)     point group:

     e(  1 -  1) =    -18.42146  eV     1   --> A              
     e(  2 -  2) =    -18.15592  eV     1   --> A              
     e(  3 -  3) =    -12.10648  eV     1   --> A              
     e(  4 -  4) =    -11.11538  eV     1   --> A              
     e(  5 -  5) =    -10.31962  eV     1   --> A              
     e(  6 -  6) =     -9.33711  eV     1   --> A              
     e(  7 -  7) =     -8.05842  eV     1   --> A              
     e(  8 -  8) =     -6.98563  eV     1   --> A              
     e(  9 -  9) =     -6.85004  eV     1   --> A              
     e( 10 - 10) =     -3.73169  eV     1   --> A              
     e( 11 - 11) =     -3.22051  eV     1   --> A              
     e( 12 - 12) =     -2.02070  eV     1   --> A              
     e( 13 - 13) =     -1.61054  eV     1   --> A              
     e( 14 - 14) =     -0.00831  eV     1   --> A              
     e( 15 - 15) =      1.65555  eV     1   --> A              

 **************************************************************************

 **************************************************************************

                    xk=(   0.00000,  -0.52924,   0.00000  )

     Band symmetry, C_1 (1)     point group:

     e(  1 -  1) =    -18.45637  eV     1   --> A              
     e(  2 -  2) =    -18.17163  eV     1   --> A              
     e(  3 -  3) =    -12.07164  eV     1   --> A              
     e(  4 -  4) =    -11.08015  eV     1   --> A              
     e(  5 -  5) =    -10.30153  eV     1   --> A              
     e(  6 -  6) =     -9.32086  eV     1   --> A              
     e(  7 -  7) =     -8.04634  eV     1   --> A              
     e(  8 -  8) =     -7.00607  eV     1   --> A              
     e(  9 -  9) =     -6.88833  eV     1   --> A              
     e( 10 - 10) =     -3.74021  eV     1   --> A              
     e( 11 - 11) =     -3.26353  eV     1   --> A              
     e( 12 - 12) =     -2.04697  eV     1   --> A              
     e( 13 - 13) =     -1.61917  eV     1   --> A              
     e( 14 - 14) =      0.10416  eV     1   --> A              
     e( 15 - 15) =      1.64983  eV     1   --> A              

 **************************************************************************

 **************************************************************************

                    xk=(   0.00000,  -0.50518,   0.00000  )

     Band symmetry, C_1 (1)     point group:

     e(  1 -  1) =    -18.51294  eV     1   --> A              
     e(  2 -  2) =    -18.19723  eV     1   --> A              
     e(  3 -  3) =    -12.01544  eV     1   --> A              
     e(  4 -  4) =    -11.02233  eV     1   --> A              
     e(  5 -  5) =    -10.27350  eV     1   --> A              
     e(  6 -  6) =     -9.29389  eV     1   --> A              
     e(  7 -  7) =     -8.02604  eV     1   --> A              
     e(  8 -  8) =     -7.04025  eV     1   --> A              
     e(  9 -  9) =     -6.94638  eV     1   --> A              
     e( 10 - 10) =     -3.75249  eV     1   --> A              
     e( 11 - 11) =     -3.32811  eV     1   --> A              
     e( 12 - 12) =     -2.09118  eV     1   --> A              
     e( 13 - 13) =     -1.63380  eV     1   --> A              
     e( 14 - 14) =      0.27945  eV     1   --> A              
     e( 15 - 15) =      1.64380  eV     1   --> A              

 **************************************************************************

 **************************************************************************

                    xk=(   0.00000,  -0.48113,   0.00000  )

     Band symmetry, C_1 (1)     point group:

     e(  1 -  1) =    -18.58896  eV     1   --> A              
     e(  2 -  2) =    -18.23192  eV     1   --> A              
     e(  3 -  3) =    -11.94049  eV     1   --> A              
     e(  4 -  4) =    -10.94322  eV     1   --> A              
     e(  5 -  5) =    -10.23872  eV     1   --> A              
     e(  6 -  6) =     -9.25636  eV     1   --> A              
     e(  7 -  7) =     -7.99728  eV     1   --> A              
     e(  8 -  8) =     -7.08827  eV     1   --> A              
     e(  9 -  9) =     -7.01620  eV     1   --> A              
     e( 10 - 10) =     -3.76602  eV     1   --> A              
     e( 11 - 11) =     -3.40677  eV     1   --> A              
     e( 12 - 12) =     -2.15360  eV     1   --> A              
     e( 13 - 13) =     -1.65481  eV     1   --> A              
     e( 14 - 14) =      0.50243  eV     1   --> A              
     e( 15 - 15) =      1.63960  eV     1   --> A              

 **************************************************************************

 **************************************************************************

                    xk=(   0.00000,  -0.45707,   0.00000  )

     Band symmetry, C_1 (1)     point group:

     e(  1 -  1) =    -18.68168  eV     1   --> A              
     e(  2 -  2) =    -18.27465  eV     1   --> A              
     e(  3 -  3) =    -11.85018  eV     1   --> A              
     e(  4 -  4) =    -10.84453  eV     1   --> A              
     e(  5 -  5) =    -10.20142  eV     1   --> A              
     e(  6 -  6) =     -9.20848  eV     1   --> A              
     e(  7 -  7) =     -7.95983  eV     1   --> A              
     e(  8 -  8) =     -7.15003  eV     1   --> A              
     e(  9 -  9) =     -7.08772  eV     1   --> A              
     e( 10 - 10) =     -3.77780  eV     1   --> A              
     e( 11 - 11) =     -3.49273  eV     1   --> A              
     e( 12 - 12) =     -2.23396  eV     1   --> A              
     e( 13 - 13) =     -1.68267  eV     1   --> A              
     e( 14 - 14) =      0.75420  eV     1   --> A              
     e( 15 - 15) =      1.63477  eV     1   --> A              

 **************************************************************************

 **************************************************************************

                    xk=(   0.00000,  -0.43301,   0.00000  )

     Band symmetry, C_1 (1)     point group:

     e(  1 -  1) =    -18.78806  eV     1   --> A              
     e(  2 -  2) =    -18.32421  eV     1   --> A              
     e(  3 -  3) =    -11.74863  eV     1   --> A              
     e(  4 -  4) =    -10.72831  eV     1   --> A              
     e(  5 -  5) =    -10.16646  eV     1   --> A              
     e(  6 -  6) =     -9.15057  eV     1   --> A              
     e(  7 -  7) =     -7.91346  eV     1   --> A              
     e(  8 -  8) =     -7.22512  eV     1   --> A              
     e(  9 -  9) =     -7.14996  eV     1   --> A              
     e( 10 - 10) =     -3.78486  eV     1   --> A              
     e( 11 - 11) =     -3.58065  eV     1   --> A              
     e( 12 - 12) =     -2.33116  eV     1   --> A              
     e( 13 - 13) =     -1.71793  eV     1   --> A              
     e( 14 - 14) =      1.00549  eV     1   --> A              
     e( 15 - 15) =      1.61817  eV     1   --> A              

 **************************************************************************

 **************************************************************************

                    xk=(   0.00000,  -0.40896,   0.00000  )

     Band symmetry, C_1 (1)     point group:

     e(  1 -  1) =    -18.90497  eV     1   --> A              
     e(  2 -  2) =    -18.37927  eV     1   --> A              
     e(  3 -  3) =    -11.64072  eV     1   --> A              
     e(  4 -  4) =    -10.59688  eV     1   --> A              
     e(  5 -  5) =    -10.13816  eV     1   --> A              
     e(  6 -  6) =     -9.08301  eV     1   --> A              
     e(  7 -  7) =     -7.85811  eV     1   --> A              
     e(  8 -  8) =     -7.31269  eV     1   --> A              
     e(  9 -  9) =     -7.19233  eV     1   --> A              
     e( 10 - 10) =     -3.78454  eV     1   --> A              
     e( 11 - 11) =     -3.66635  eV     1   --> A              
     e( 12 - 12) =     -2.44308  eV     1   --> A              
     e( 13 - 13) =     -1.76120  eV     1   --> A              
     e( 14 - 14) =      1.18350  eV     1   --> A              
     e( 15 - 15) =      1.56972  eV     1   --> A              

 **************************************************************************

 **************************************************************************

                    xk=(   0.00000,  -0.38490,   0.00000  )

     Band symmetry, C_1 (1)     point group:

     e(  1 -  1) =    -19.02937  eV     1   --> A              
     e(  2 -  2) =    -18.43850  eV     1   --> A              
     e(  3 -  3) =    -11.53246  eV     1   --> A              
     e(  4 -  4) =    -10.45270  eV     1   --> A              
     e(  5 -  5) =    -10.11864  eV     1   --> A              
     e(  6 -  6) =     -9.00627  eV     1   --> A              
     e(  7 -  7) =     -7.79398  eV     1   --> A              
     e(  8 -  8) =     -7.41143  eV     1   --> A              
     e(  9 -  9) =     -7.20638  eV     1   --> A              
     e( 10 - 10) =     -3.77482  eV     1   --> A              
     e( 11 - 11) =     -3.74639  eV     1   --> A              
     e( 12 - 12) =     -2.56660  eV     1   --> A              
     e( 13 - 13) =     -1.81303  eV     1   --> A              
     e( 14 - 14) =      1.18577  eV     1   --> A              
     e( 15 - 15) =      1.47346  eV     1   --> A              

 **************************************************************************

 **************************************************************************

                    xk=(   0.00000,  -0.36084,   0.00000  )

     Band symmetry, C_1 (1)     point group:

     e(  1 -  1) =    -19.15840  eV     1   --> A              
     e(  2 -  2) =    -18.50055  eV     1   --> A              
     e(  3 -  3) =    -11.43150  eV     1   --> A              
     e(  4 -  4) =    -10.29827  eV     1   --> A              
     e(  5 -  5) =    -10.10579  eV     1   --> A              
     e(  6 -  6) =     -8.92094  eV     1   --> A              
     e(  7 -  7) =     -7.72168  eV     1   --> A              
     e(  8 -  8) =     -7.51954  eV     1   --> A              
     e(  9 -  9) =     -7.18739  eV     1   --> A              
     e( 10 - 10) =     -3.81757  eV     1   --> A              
     e( 11 - 11) =     -3.75442  eV     1   --> A              
     e( 12 - 12) =     -2.69779  eV     1   --> A              
     e( 13 - 13) =     -1.87390  eV     1   --> A              
     e( 14 - 14) =      1.08083  eV     1   --> A              
     e( 15 - 15) =      1.33394  eV     1   --> A              

 **************************************************************************

 **************************************************************************

                    xk=(   0.00000,  -0.33679,   0.00000  )

     Band symmetry, C_1 (1)     point group:

     e(  1 -  1) =    -19.28943  eV     1   --> A              
     e(  2 -  2) =    -18.56414  eV     1   --> A              
     e(  3 -  3) =    -11.34754  eV     1   --> A              
     e(  4 -  4) =    -10.13605  eV     1   --> A              
     e(  5 -  5) =    -10.09201  eV     1   --> A              
     e(  6 -  6) =     -8.82773  eV     1   --> A              
     e(  7 -  7) =     -7.64244  eV     1   --> A              
     e(  8 -  8) =     -7.63483  eV     1   --> A              
     e(  9 -  9) =     -7.13536  eV     1   --> A              
     e( 10 - 10) =     -3.87658  eV     1   --> A              
     e( 11 - 11) =     -3.72285  eV     1   --> A              
     e( 12 - 12) =     -2.83208  eV     1   --> A              
     e( 13 - 13) =     -1.94411  eV     1   --> A              
     e( 14 - 14) =      0.94326  eV     1   --> A              
     e( 15 - 15) =      1.16851  eV     1   --> A              

 **************************************************************************

 **************************************************************************

                    xk=(   0.00000,  -0.31273,   0.00000  )

     Band symmetry, C_1 (1)     point group:

     e(  1 -  1) =    -19.42009  eV     1   --> A              
     e(  2 -  2) =    -18.62808  eV     1   --> A              
     e(  3 -  3) =    -11.29140  eV     1   --> A              
     e(  4 -  4) =    -10.06532  eV     1   --> A              
     e(  5 -  5) =     -9.96832  eV     1   --> A              
     e(  6 -  6) =     -8.72749  eV     1   --> A              
     e(  7 -  7) =     -7.75490  eV     1   --> A              
     e(  8 -  8) =     -7.55830  eV     1   --> A              
     e(  9 -  9) =     -7.05484  eV     1   --> A              
     e( 10 - 10) =     -3.91990  eV     1   --> A              
     e( 11 - 11) =     -3.68030  eV     1   --> A              
     e( 12 - 12) =     -2.96444  eV     1   --> A              
     e( 13 - 13) =     -2.02369  eV     1   --> A              
     e( 14 - 14) =      0.79474  eV     1   --> A              
     e( 15 - 15) =      0.99251  eV     1   --> A              

 **************************************************************************

 **************************************************************************

                    xk=(   0.00000,  -0.28868,   0.00000  )

     Band symmetry, C_1 (1)     point group:

     e(  1 -  1) =    -19.54829  eV     1   --> A              
     e(  2 -  2) =    -18.69126  eV     1   --> A              
     e(  3 -  3) =    -11.27154  eV     1   --> A              
     e(  4 -  4) =    -10.01395  eV     1   --> A              
     e(  5 -  5) =     -9.79713  eV     1   --> A              
     e(  6 -  6) =     -8.62123  eV     1   --> A              
     e(  7 -  7) =     -7.87719  eV     1   --> A              
     e(  8 -  8) =     -7.47230  eV     1   --> A              
     e(  9 -  9) =     -6.95373  eV     1   --> A              
     e( 10 - 10) =     -3.94373  eV     1   --> A              
     e( 11 - 11) =     -3.62757  eV     1   --> A              
     e( 12 - 12) =     -3.08945  eV     1   --> A              
     e( 13 - 13) =     -2.11234  eV     1   --> A              
     e( 14 - 14) =      0.64337  eV     1   --> A              
     e( 15 - 15) =      0.81578  eV     1   --> A              

 **************************************************************************

 **************************************************************************

                    xk=(   0.00000,  -0.26462,   0.00000  )

     Band symmetry, C_1 (1)     point group:

     e(  1 -  1) =    -19.67218  eV     1   --> A              
     e(  2 -  2) =    -18.75267  eV     1   --> A              
     e(  3 -  3) =    -11.28946  eV     1   --> A              
     e(  4 -  4) =     -9.93239  eV     1   --> A              
     e(  5 -  5) =     -9.62419  eV     1   --> A              
     e(  6 -  6) =     -8.51016  eV     1   --> A              
     e(  7 -  7) =     -7.99920  eV     1   --> A              
     e(  8 -  8) =     -7.38855  eV     1   --> A              
     e(  9 -  9) =     -6.84165  eV     1   --> A              
     e( 10 - 10) =     -3.94426  eV     1   --> A              
     e( 11 - 11) =     -3.56595  eV     1   --> A              
     e( 12 - 12) =     -3.20147  eV     1   --> A              
     e( 13 - 13) =     -2.20933  eV     1   --> A              
     e( 14 - 14) =      0.49354  eV     1   --> A              
     e( 15 - 15) =      0.64423  eV     1   --> A              

 **************************************************************************

 **************************************************************************

                    xk=(   0.00000,  -0.24056,   0.00000  )

     Band symmetry, C_1 (1)     point group:

     e(  1 -  1) =    -19.79012  eV     1   --> A              
     e(  2 -  2) =    -18.81144  eV     1   --> A              
     e(  3 -  3) =    -11.33882  eV     1   --> A              
     e(  4 -  4) =     -9.82327  eV     1   --> A              
     e(  5 -  5) =     -9.45084  eV     1   --> A              
     e(  6 -  6) =     -8.39573  eV     1   --> A              
     e(  7 -  7) =     -8.11851  eV     1   --> A              
     e(  8 -  8) =     -7.31223  eV     1   --> A              
     e(  9 -  9) =     -6.72836  eV     1   --> A              
     e( 10 - 10) =     -3.91817  eV     1   --> A              
     e( 11 - 11) =     -3.49713  eV     1   --> A              
     e( 12 - 12) =     -3.29484  eV     1   --> A              
     e( 13 - 13) =     -2.31345  eV     1   --> A              
     e( 14 - 14) =      0.34816  eV     1   --> A              
     e( 15 - 15) =      0.48156  eV     1   --> A              

 **************************************************************************

 **************************************************************************

                    xk=(   0.00000,  -0.21651,   0.00000  )

     Band symmetry, C_1 (1)     point group:

     e(  1 -  1) =    -19.90070  eV     1   --> A              
     e(  2 -  2) =    -18.86676  eV     1   --> A              
     e(  3 -  3) =    -11.40937  eV     1   --> A              
     e(  4 -  4) =     -9.69413  eV     1   --> A              
     e(  5 -  5) =     -9.27807  eV     1   --> A              
     e(  6 -  6) =     -8.27964  eV     1   --> A              
     e(  7 -  7) =     -8.23291  eV     1   --> A              
     e(  8 -  8) =     -7.24919  eV     1   --> A              
     e(  9 -  9) =     -6.62240  eV     1   --> A              
     e( 10 - 10) =     -3.86342  eV     1   --> A              
     e( 11 - 11) =     -3.42313  eV     1   --> A              
     e( 12 - 12) =     -3.36433  eV     1   --> A              
     e( 13 - 13) =     -2.42294  eV     1   --> A              
     e( 14 - 14) =      0.20923  eV     1   --> A              
     e( 15 - 15) =      0.33015  eV     1   --> A              

 **************************************************************************

 **************************************************************************

                    xk=(   0.00000,  -0.19245,   0.00000  )

     Band symmetry, C_1 (1)     point group:

     e(  1 -  1) =    -20.00269  eV     1   --> A              
     e(  2 -  2) =    -18.91796  eV     1   --> A              
     e(  3 -  3) =    -11.49110  eV     1   --> A              
     e(  4 -  4) =     -9.55347  eV     1   --> A              
     e(  5 -  5) =     -9.10661  eV     1   --> A              
     e(  6 -  6) =     -8.34037  eV     1   --> A              
     e(  7 -  7) =     -8.16390  eV     1   --> A              
     e(  8 -  8) =     -7.20528  eV     1   --> A              
     e(  9 -  9) =     -6.53000  eV     1   --> A              
     e( 10 - 10) =     -3.78018  eV     1   --> A              
     e( 11 - 11) =     -3.40588  eV     1   --> A              
     e( 12 - 12) =     -3.34623  eV     1   --> A              
     e( 13 - 13) =     -2.53552  eV     1   --> A              
     e( 14 - 14) =      0.07809  eV     1   --> A              
     e( 15 - 15) =      0.19165  eV     1   --> A              

 **************************************************************************

 **************************************************************************

                    xk=(   0.00000,  -0.16839,   0.00000  )

     Band symmetry, C_1 (1)     point group:

     e(  1 -  1) =    -20.09502  eV     1   --> A              
     e(  2 -  2) =    -18.96443  eV     1   --> A              
     e(  3 -  3) =    -11.57596  eV     1   --> A              
     e(  4 -  4) =     -9.40906  eV     1   --> A              
     e(  5 -  5) =     -8.93698  eV     1   --> A              
     e(  6 -  6) =     -8.43914  eV     1   --> A              
     e(  7 -  7) =     -8.05084  eV     1   --> A              
     e(  8 -  8) =     -7.18537  eV     1   --> A              
     e(  9 -  9) =     -6.45448  eV     1   --> A              
     e( 10 - 10) =     -3.67148  eV     1   --> A              
     e( 11 - 11) =     -3.41759  eV     1   --> A              
     e( 12 - 12) =     -3.26894  eV     1   --> A              
     e( 13 - 13) =     -2.64833  eV     1   --> A              
     e( 14 - 14) =     -0.04437  eV     1   --> A              
     e( 15 - 15) =      0.06723  eV     1   --> A              

 **************************************************************************

 **************************************************************************

                    xk=(   0.00000,  -0.14434,   0.00000  )

     Band symmetry, C_1 (1)     point group:

     e(  1 -  1) =    -20.17678  eV     1   --> A              
     e(  2 -  2) =    -19.00567  eV     1   --> A              
     e(  3 -  3) =    -11.65799  eV     1   --> A              
     e(  4 -  4) =     -9.26773  eV     1   --> A              
     e(  5 -  5) =     -8.76970  eV     1   --> A              
     e(  6 -  6) =     -8.52767  eV     1   --> A              
     e(  7 -  7) =     -7.94315  eV     1   --> A              
     e(  8 -  8) =     -7.19239  eV     1   --> A              
     e(  9 -  9) =     -6.39635  eV     1   --> A              
     e( 10 - 10) =     -3.54332  eV     1   --> A              
     e( 11 - 11) =     -3.40067  eV     1   --> A              
     e( 12 - 12) =     -3.19393  eV     1   --> A              
     e( 13 - 13) =     -2.75803  eV     1   --> A              
     e( 14 - 14) =     -0.15754  eV     1   --> A              
     e( 15 - 15) =     -0.04224  eV     1   --> A              

 **************************************************************************

 **************************************************************************

                    xk=(   0.00000,  -0.12028,   0.00000  )

     Band symmetry, C_1 (1)     point group:

     e(  1 -  1) =    -20.24722  eV     1   --> A              
     e(  2 -  2) =    -19.04125  eV     1   --> A              
     e(  3 -  3) =    -11.73288  eV     1   --> A              
     e(  4 -  4) =     -9.13559  eV     1   --> A              
     e(  5 -  5) =     -8.60546  eV     1   --> A              
     e(  6 -  6) =     -8.60469  eV     1   --> A              
     e(  7 -  7) =     -7.84382  eV     1   --> A              
     e(  8 -  8) =     -7.22669  eV     1   --> A              
     e(  9 -  9) =     -6.35402  eV     1   --> A              
     e( 10 - 10) =     -3.40426  eV     1   --> A              
     e( 11 - 11) =     -3.35996  eV     1   --> A              
     e( 12 - 12) =     -3.12399  eV     1   --> A              
     e( 13 - 13) =     -2.86085  eV     1   --> A              
     e( 14 - 14) =     -0.26089  eV     1   --> A              
     e( 15 - 15) =     -0.13609  eV     1   --> A              

 **************************************************************************

 **************************************************************************

                    xk=(   0.00000,  -0.09623,   0.00000  )

     Band symmetry, C_1 (1)     point group:

     e(  1 -  1) =    -20.30570  eV     1   --> A              
     e(  2 -  2) =    -19.07082  eV     1   --> A              
     e(  3 -  3) =    -11.79754  eV     1   --> A              
     e(  4 -  4) =     -9.01823  eV     1   --> A              
     e(  5 -  5) =     -8.66911  eV     1   --> A              
     e(  6 -  6) =     -8.44551  eV     1   --> A              
     e(  7 -  7) =     -7.75609  eV     1   --> A              
     e(  8 -  8) =     -7.28598  eV     1   --> A              
     e(  9 -  9) =     -6.32476  eV     1   --> A              
     e( 10 - 10) =     -3.30367  eV     1   --> A              
     e( 11 - 11) =     -3.26477  eV     1   --> A              
     e( 12 - 12) =     -3.06190  eV     1   --> A              
     e( 13 - 13) =     -2.95277  eV     1   --> A              
     e( 14 - 14) =     -0.35345  eV     1   --> A              
     e( 15 - 15) =     -0.21378  eV     1   --> A              

 **************************************************************************

 **************************************************************************

                    xk=(   0.00000,  -0.07217,   0.00000  )

     Band symmetry, C_1 (1)     point group:

     e(  1 -  1) =    -20.35170  eV     1   --> A              
     e(  2 -  2) =    -19.09410  eV     1   --> A              
     e(  3 -  3) =    -11.84978  eV     1   --> A              
     e(  4 -  4) =     -8.92074  eV     1   --> A              
     e(  5 -  5) =     -8.72007  eV     1   --> A              
     e(  6 -  6) =     -8.29225  eV     1   --> A              
     e(  7 -  7) =     -7.68328  eV     1   --> A              
     e(  8 -  8) =     -7.36534  eV     1   --> A              
     e(  9 -  9) =     -6.30562  eV     1   --> A              
     e( 10 - 10) =     -3.24245  eV     1   --> A              
     e( 11 - 11) =     -3.13660  eV     1   --> A              
     e( 12 - 12) =     -3.02972  eV     1   --> A              
     e( 13 - 13) =     -3.01030  eV     1   --> A              
     e( 14 - 14) =     -0.43324  eV     1   --> A              
     e( 15 - 15) =     -0.27483  eV     1   --> A              

 **************************************************************************

 **************************************************************************

                    xk=(   0.00000,  -0.04811,   0.00000  )

     Band symmetry, C_1 (1)     point group:

     e(  1 -  1) =    -20.38483  eV     1   --> A              
     e(  2 -  2) =    -19.11088  eV     1   --> A              
     e(  3 -  3) =    -11.88808  eV     1   --> A              
     e(  4 -  4) =     -8.84753  eV     1   --> A              
     e(  5 -  5) =     -8.75694  eV     1   --> A              
     e(  6 -  6) =     -8.15109  eV     1   --> A              
     e(  7 -  7) =     -7.62855  eV     1   --> A              
     e(  8 -  8) =     -7.45644  eV     1   --> A              
     e(  9 -  9) =     -6.29396  eV     1   --> A              
     e( 10 - 10) =     -3.18777  eV     1   --> A              
     e( 11 - 11) =     -3.08792  eV     1   --> A              
     e( 12 - 12) =     -3.03219  eV     1   --> A              
     e( 13 - 13) =     -2.97155  eV     1   --> A              
     e( 14 - 14) =     -0.49657  eV     1   --> A              
     e( 15 - 15) =     -0.31884  eV     1   --> A              

 **************************************************************************

 **************************************************************************

                    xk=(   0.00000,  -0.02406,   0.00000  )

     Band symmetry, C_1 (1)     point group:

     e(  1 -  1) =    -20.40482  eV     1   --> A              
     e(  2 -  2) =    -19.12101  eV     1   --> A              
     e(  3 -  3) =    -11.91143  eV     1   --> A              
     e(  4 -  4) =     -8.80210  eV     1   --> A              
     e(  5 -  5) =     -8.77924  eV     1   --> A              
     e(  6 -  6) =     -8.03641  eV     1   --> A              
     e(  7 -  7) =     -7.59453  eV     1   --> A              
     e(  8 -  8) =     -7.54225  eV     1   --> A              
     e(  9 -  9) =     -6.28778  eV     1   --> A              
     e( 10 - 10) =     -3.15004  eV     1   --> A              
     e( 11 - 11) =     -3.12423  eV     1   --> A              
     e( 12 - 12) =     -2.96342  eV     1   --> A              
     e( 13 - 13) =     -2.94750  eV     1   --> A              
     e( 14 - 14) =     -0.53812  eV     1   --> A              
     e( 15 - 15) =     -0.34542  eV     1   --> A              

 **************************************************************************

 **************************************************************************

                    xk=(   0.02083,   0.01203,   0.00000  )

     Band symmetry, C_1 (1)     point group:

     e(  1 -  1) =    -20.40482  eV     1   --> A              
     e(  2 -  2) =    -19.12101  eV     1   --> A              
     e(  3 -  3) =    -11.91143  eV     1   --> A              
     e(  4 -  4) =     -8.80210  eV     1   --> A              
     e(  5 -  5) =     -8.77924  eV     1   --> A              
     e(  6 -  6) =     -8.03641  eV     1   --> A              
     e(  7 -  7) =     -7.59453  eV     1   --> A              
     e(  8 -  8) =     -7.54225  eV     1   --> A              
     e(  9 -  9) =     -6.28778  eV     1   --> A              
     e( 10 - 10) =     -3.15004  eV     1   --> A              
     e( 11 - 11) =     -3.12423  eV     1   --> A              
     e( 12 - 12) =     -2.96342  eV     1   --> A              
     e( 13 - 13) =     -2.94750  eV     1   --> A              
     e( 14 - 14) =     -0.53812  eV     1   --> A              
     e( 15 - 15) =     -0.34542  eV     1   --> A              

 **************************************************************************

 **************************************************************************

                    xk=(   0.02083,   0.03608,   0.00000  )

     Band symmetry, C_1 (1)     point group:

     e(  1 -  1) =    -20.39149  eV     1   --> A              
     e(  2 -  2) =    -19.11426  eV     1   --> A              
     e(  3 -  3) =    -11.89583  eV     1   --> A              
     e(  4 -  4) =     -8.83250  eV     1   --> A              
     e(  5 -  5) =     -8.76437  eV     1   --> A              
     e(  6 -  6) =     -8.11666  eV     1   --> A              
     e(  7 -  7) =     -7.61796  eV     1   --> A              
     e(  8 -  8) =     -7.48050  eV     1   --> A              
     e(  9 -  9) =     -6.29183  eV     1   --> A              
     e( 10 - 10) =     -3.17590  eV     1   --> A              
     e( 11 - 11) =     -3.09964  eV     1   --> A              
     e( 12 - 12) =     -3.00967  eV     1   --> A              
     e( 13 - 13) =     -2.96376  eV     1   --> A              
     e( 14 - 14) =     -0.51007  eV     1   --> A              
     e( 15 - 15) =     -0.32768  eV     1   --> A              

 **************************************************************************

 **************************************************************************

                    xk=(   0.02083,   0.06014,   0.00000  )

     Band symmetry, C_1 (1)     point group:

     e(  1 -  1) =    -20.36492  eV     1   --> A              
     e(  2 -  2) =    -19.10080  eV     1   --> A              
     e(  3 -  3) =    -11.86500  eV     1   --> A              
     e(  4 -  4) =     -8.89176  eV     1   --> A              
     e(  5 -  5) =     -8.73485  eV     1   --> A              
     e(  6 -  6) =     -8.23987  eV     1   --> A              
     e(  7 -  7) =     -7.66408  eV     1   --> A              
     e(  8 -  8) =     -7.39494  eV     1   --> A              
     e(  9 -  9) =     -6.30075  eV     1   --> A              
     e( 10 - 10) =     -3.22281  eV     1   --> A              
     e( 11 - 11) =     -3.09575  eV     1   --> A              
     e( 12 - 12) =     -3.05170  eV     1   --> A              
     e( 13 - 13) =     -2.99559  eV     1   --> A              
     e( 14 - 14) =     -0.45776  eV     1   --> A              
     e( 15 - 15) =     -0.29239  eV     1   --> A              

 **************************************************************************

 **************************************************************************

                    xk=(   0.02083,   0.08420,   0.00000  )

     Band symmetry, C_1 (1)     point group:

     e(  1 -  1) =    -20.32536  eV     1   --> A              
     e(  2 -  2) =    -19.08077  eV     1   --> A              
     e(  3 -  3) =    -11.81971  eV     1   --> A              
     e(  4 -  4) =     -8.97699  eV     1   --> A              
     e(  5 -  5) =     -8.69104  eV     1   --> A              
     e(  6 -  6) =     -8.38272  eV     1   --> A              
     e(  7 -  7) =     -7.73037  eV     1   --> A              
     e(  8 -  8) =     -7.31134  eV     1   --> A              
     e(  9 -  9) =     -6.31613  eV     1   --> A              
     e( 10 - 10) =     -3.28177  eV     1   --> A              
     e( 11 - 11) =     -3.21130  eV     1   --> A              
     e( 12 - 12) =     -3.04131  eV     1   --> A              
     e( 13 - 13) =     -2.98317  eV     1   --> A              
     e( 14 - 14) =     -0.38645  eV     1   --> A              
     e( 15 - 15) =     -0.23985  eV     1   --> A              

 **************************************************************************

 **************************************************************************

                    xk=(   0.02083,   0.10825,   0.00000  )

     Band symmetry, C_1 (1)     point group:

     e(  1 -  1) =    -20.27312  eV     1   --> A              
     e(  2 -  2) =    -19.05434  eV     1   --> A              
     e(  3 -  3) =    -11.76120  eV     1   --> A              
     e(  4 -  4) =     -9.08425  eV     1   --> A              
     e(  5 -  5) =     -8.63352  eV     1   --> A              
     e(  6 -  6) =     -8.53571  eV     1   --> A              
     e(  7 -  7) =     -7.81368  eV     1   --> A              
     e(  8 -  8) =     -7.24221  eV     1   --> A              
     e(  9 -  9) =     -6.34031  eV     1   --> A              
     e( 10 - 10) =     -3.34434  eV     1   --> A              
     e( 11 - 11) =     -3.34175  eV     1   --> A              
     e( 12 - 12) =     -3.09872  eV     1   --> A              
     e( 13 - 13) =     -2.89764  eV     1   --> A              
     e( 14 - 14) =     -0.30058  eV     1   --> A              
     e( 15 - 15) =     -0.17047  eV     1   --> A              

 **************************************************************************

 **************************************************************************

                    xk=(   0.02083,   0.13231,   0.00000  )

     Band symmetry, C_1 (1)     point group:

     e(  1 -  1) =    -20.20866  eV     1   --> A              
     e(  2 -  2) =    -19.02176  eV     1   --> A              
     e(  3 -  3) =    -11.69132  eV     1   --> A              
     e(  4 -  4) =     -9.20877  eV     1   --> A              
     e(  5 -  5) =     -8.69474  eV     1   --> A              
     e(  6 -  6) =     -8.56305  eV     1   --> A              
     e(  7 -  7) =     -7.91052  eV     1   --> A              
     e(  8 -  8) =     -7.19463  eV     1   --> A              
     e(  9 -  9) =     -6.37608  eV     1   --> A              
     e( 10 - 10) =     -3.48293  eV     1   --> A              
     e( 11 - 11) =     -3.39161  eV     1   --> A              
     e( 12 - 12) =     -3.16518  eV     1   --> A              
     e( 13 - 13) =     -2.79912  eV     1   --> A              
     e( 14 - 14) =     -0.20287  eV     1   --> A              
     e( 15 - 15) =     -0.08467  eV     1   --> A              

 **************************************************************************

 **************************************************************************

                    xk=(   0.02083,   0.15637,   0.00000  )

     Band symmetry, C_1 (1)     point group:

     e(  1 -  1) =    -20.13255  eV     1   --> A              
     e(  2 -  2) =    -18.98334  eV     1   --> A              
     e(  3 -  3) =    -11.61267  eV     1   --> A              
     e(  4 -  4) =     -9.34523  eV     1   --> A              
     e(  5 -  5) =     -8.85789  eV     1   --> A              
     e(  6 -  6) =     -8.48066  eV     1   --> A              
     e(  7 -  7) =     -8.01737  eV     1   --> A              
     e(  8 -  8) =     -7.17264  eV     1   --> A              
     e(  9 -  9) =     -6.42633  eV     1   --> A              
     e( 10 - 10) =     -3.61608  eV     1   --> A              
     e( 11 - 11) =     -3.42180  eV     1   --> A              
     e( 12 - 12) =     -3.23784  eV     1   --> A              
     e( 13 - 13) =     -2.69174  eV     1   --> A              
     e( 14 - 14) =     -0.09473  eV     1   --> A              
     e( 15 - 15) =      0.01704  eV     1   --> A              

 **************************************************************************

 **************************************************************************

                    xk=(   0.02083,   0.18042,   0.00000  )

     Band symmetry, C_1 (1)     point group:

     e(  1 -  1) =    -20.04549  eV     1   --> A              
     e(  2 -  2) =    -18.93947  eV     1   --> A              
     e(  3 -  3) =    -11.52888  eV     1   --> A              
     e(  4 -  4) =     -9.48780  eV     1   --> A              
     e(  5 -  5) =     -9.02417  eV     1   --> A              
     e(  6 -  6) =     -8.38756  eV     1   --> A              
     e(  7 -  7) =     -8.13083  eV     1   --> A              
     e(  8 -  8) =     -7.17763  eV     1   --> A              
     e(  9 -  9) =     -6.49324  eV     1   --> A              
     e( 10 - 10) =     -3.73433  eV     1   --> A              
     e( 11 - 11) =     -3.42565  eV     1   --> A              
     e( 12 - 12) =     -3.31382  eV     1   --> A              
     e( 13 - 13) =     -2.57946  eV     1   --> A              
     e( 14 - 14) =      0.02311  eV     1   --> A              
     e( 15 - 15) =      0.13406  eV     1   --> A              

 **************************************************************************

 **************************************************************************

                    xk=(   0.02083,   0.20448,   0.00000  )

     Band symmetry, C_1 (1)     point group:

     e(  1 -  1) =    -19.94831  eV     1   --> A              
     e(  2 -  2) =    -18.89062  eV     1   --> A              
     e(  3 -  3) =    -11.44506  eV     1   --> A              
     e(  4 -  4) =     -9.63004  eV     1   --> A              
     e(  5 -  5) =     -9.19301  eV     1   --> A              
     e(  6 -  6) =     -8.28525  eV     1   --> A              
     e(  7 -  7) =     -8.24781  eV     1   --> A              
     e(  8 -  8) =     -7.20827  eV     1   --> A              
     e(  9 -  9) =     -6.57740  eV     1   --> A              
     e( 10 - 10) =     -3.83044  eV     1   --> A              
     e( 11 - 11) =     -3.40007  eV     1   --> A              
     e( 12 - 12) =     -3.39024  eV     1   --> A              
     e( 13 - 13) =     -2.46587  eV     1   --> A              
     e( 14 - 14) =      0.15008  eV     1   --> A              
     e( 15 - 15) =      0.26564  eV     1   --> A              

 **************************************************************************

 **************************************************************************

                    xk=(   0.02083,   0.22853,   0.00000  )

     Band symmetry, C_1 (1)     point group:

     e(  1 -  1) =    -19.84200  eV     1   --> A              
     e(  2 -  2) =    -18.83733  eV     1   --> A              
     e(  3 -  3) =    -11.36818  eV     1   --> A              
     e(  4 -  4) =     -9.76469  eV     1   --> A              
     e(  5 -  5) =     -9.36392  eV     1   --> A              
     e(  6 -  6) =     -8.36559  eV     1   --> A              
     e(  7 -  7) =     -8.17550  eV     1   --> A              
     e(  8 -  8) =     -7.26086  eV     1   --> A              
     e(  9 -  9) =     -6.67684  eV     1   --> A              
     e( 10 - 10) =     -3.89996  eV     1   --> A              
     e( 11 - 11) =     -3.46439  eV     1   --> A              
[...]
     e( 15 - 15) =      1.61595  eV     1   --> A              

 **************************************************************************

 **************************************************************************

                    xk=(  -0.02083,  -0.39693,   0.00000  )

     Band symmetry, C_1 (1)     point group:

     e(  1 -  1) =    -18.96316  eV     1   --> A              
     e(  2 -  2) =    -18.40660  eV     1   --> A              
     e(  3 -  3) =    -11.58300  eV     1   --> A              
     e(  4 -  4) =    -10.52739  eV     1   --> A              
     e(  5 -  5) =    -10.12370  eV     1   --> A              
     e(  6 -  6) =     -9.06288  eV     1   --> A              
     e(  7 -  7) =     -7.81416  eV     1   --> A              
     e(  8 -  8) =     -7.41925  eV     1   --> A              
     e(  9 -  9) =     -7.15928  eV     1   --> A              
     e( 10 - 10) =     -3.81545  eV     1   --> A              
     e( 11 - 11) =     -3.67297  eV     1   --> A              
     e( 12 - 12) =     -2.51948  eV     1   --> A              
     e( 13 - 13) =     -1.77692  eV     1   --> A              
     e( 14 - 14) =      1.21822  eV     1   --> A              
     e( 15 - 15) =      1.53972  eV     1   --> A              

 **************************************************************************

 **************************************************************************

                    xk=(  -0.02083,  -0.37287,   0.00000  )

     Band symmetry, C_1 (1)     point group:

     e(  1 -  1) =    -19.09003  eV     1   --> A              
     e(  2 -  2) =    -18.46736  eV     1   --> A              
     e(  3 -  3) =    -11.47782  eV     1   --> A              
     e(  4 -  4) =    -10.37700  eV     1   --> A              
     e(  5 -  5) =    -10.10843  eV     1   --> A              
     e(  6 -  6) =     -8.98486  eV     1   --> A              
     e(  7 -  7) =     -7.74367  eV     1   --> A              
     e(  8 -  8) =     -7.50281  eV     1   --> A              
     e(  9 -  9) =     -7.17493  eV     1   --> A              
     e( 10 - 10) =     -3.83983  eV     1   --> A              
     e( 11 - 11) =     -3.71114  eV     1   --> A              
     e( 12 - 12) =     -2.64823  eV     1   --> A              
     e( 13 - 13) =     -1.83098  eV     1   --> A              
     e( 14 - 14) =      1.15171  eV     1   --> A              
     e( 15 - 15) =      1.41703  eV     1   --> A              

 **************************************************************************

 **************************************************************************

                    xk=(  -0.02083,  -0.34882,   0.00000  )

     Band symmetry, C_1 (1)     point group:

     e(  1 -  1) =    -19.22018  eV     1   --> A              
     e(  2 -  2) =    -18.53028  eV     1   --> A              
     e(  3 -  3) =    -11.38436  eV     1   --> A              
     e(  4 -  4) =    -10.21762  eV     1   --> A              
     e(  5 -  5) =    -10.09705  eV     1   --> A              
     e(  6 -  6) =     -8.89837  eV     1   --> A              
     e(  7 -  7) =     -7.66582  eV     1   --> A              
     e(  8 -  8) =     -7.60007  eV     1   --> A              
     e(  9 -  9) =     -7.15161  eV     1   --> A              
     e( 10 - 10) =     -3.87952  eV     1   --> A              
     e( 11 - 11) =     -3.71248  eV     1   --> A              
     e( 12 - 12) =     -2.78172  eV     1   --> A              
     e( 13 - 13) =     -1.89508  eV     1   --> A              
     e( 14 - 14) =      1.02482  eV     1   --> A              
     e( 15 - 15) =      1.26085  eV     1   --> A              

 **************************************************************************

 **************************************************************************

                    xk=(  -0.02083,  -0.32476,   0.00000  )

     Band symmetry, C_1 (1)     point group:

     e(  1 -  1) =    -19.35113  eV     1   --> A              
     e(  2 -  2) =    -18.59413  eV     1   --> A              
     e(  3 -  3) =    -11.31304  eV     1   --> A              
     e(  4 -  4) =    -10.07944  eV     1   --> A              
     e(  5 -  5) =    -10.05175  eV     1   --> A              
     e(  6 -  6) =     -8.80399  eV     1   --> A              
     e(  7 -  7) =     -7.70850  eV     1   --> A              
     e(  8 -  8) =     -7.58239  eV     1   --> A              
     e(  9 -  9) =     -7.09200  eV     1   --> A              
     e( 10 - 10) =     -3.91944  eV     1   --> A              
     e( 11 - 11) =     -3.68844  eV     1   --> A              
     e( 12 - 12) =     -2.91534  eV     1   --> A              
     e( 13 - 13) =     -1.96919  eV     1   --> A              
     e( 14 - 14) =      0.87942  eV     1   --> A              
     e( 15 - 15) =      1.08796  eV     1   --> A              

 **************************************************************************

 **************************************************************************

                    xk=(  -0.02083,  -0.30070,   0.00000  )

     Band symmetry, C_1 (1)     point group:

     e(  1 -  1) =    -19.48065  eV     1   --> A              
     e(  2 -  2) =    -18.65776  eV     1   --> A              
     e(  3 -  3) =    -11.27409  eV     1   --> A              
     e(  4 -  4) =    -10.04291  eV     1   --> A              
     e(  5 -  5) =     -9.88164  eV     1   --> A              
     e(  6 -  6) =     -8.70243  eV     1   --> A              
     e(  7 -  7) =     -7.82383  eV     1   --> A              
     e(  8 -  8) =     -7.49602  eV     1   --> A              
     e(  9 -  9) =     -7.00437  eV     1   --> A              
     e( 10 - 10) =     -3.94727  eV     1   --> A              
     e( 11 - 11) =     -3.64817  eV     1   --> A              
     e( 12 - 12) =     -3.04401  eV     1   --> A              
     e( 13 - 13) =     -2.05300  eV     1   --> A              
     e( 14 - 14) =      0.72804  eV     1   --> A              
     e( 15 - 15) =      0.91039  eV     1   --> A              

 **************************************************************************

 **************************************************************************

                    xk=(  -0.02083,  -0.27665,   0.00000  )

     Band symmetry, C_1 (1)     point group:

     e(  1 -  1) =    -19.60675  eV     1   --> A              
     e(  2 -  2) =    -18.72012  eV     1   --> A              
     e(  3 -  3) =    -11.27304  eV     1   --> A              
     e(  4 -  4) =     -9.97807  eV     1   --> A              
     e(  5 -  5) =     -9.70929  eV     1   --> A              
     e(  6 -  6) =     -8.59464  eV     1   --> A              
     e(  7 -  7) =     -7.94220  eV     1   --> A              
     e(  8 -  8) =     -7.41039  eV     1   --> A              
     e(  9 -  9) =     -6.89902  eV     1   --> A              
     e( 10 - 10) =     -3.95617  eV     1   --> A              
     e( 11 - 11) =     -3.59572  eV     1   --> A              
     e( 12 - 12) =     -3.16228  eV     1   --> A              
     e( 13 - 13) =     -2.14587  eV     1   --> A              
     e( 14 - 14) =      0.57644  eV     1   --> A              
     e( 15 - 15) =      0.73558  eV     1   --> A              

 **************************************************************************

 **************************************************************************

                    xk=(  -0.02083,  -0.25259,   0.00000  )

     Band symmetry, C_1 (1)     point group:

     e(  1 -  1) =    -19.72771  eV     1   --> A              
     e(  2 -  2) =    -18.78025  eV     1   --> A              
     e(  3 -  3) =    -11.30734  eV     1   --> A              
     e(  4 -  4) =     -9.88348  eV     1   --> A              
     e(  5 -  5) =     -9.53630  eV     1   --> A              
     e(  6 -  6) =     -8.48184  eV     1   --> A              
     e(  7 -  7) =     -8.06035  eV     1   --> A              
     e(  8 -  8) =     -7.33016  eV     1   --> A              
     e(  9 -  9) =     -6.78661  eV     1   --> A              
     e( 10 - 10) =     -3.94146  eV     1   --> A              
     e( 11 - 11) =     -3.53368  eV     1   --> A              
     e( 12 - 12) =     -3.26455  eV     1   --> A              
     e( 13 - 13) =     -2.24675  eV     1   --> A              
     e( 14 - 14) =      0.42812  eV     1   --> A              
     e( 15 - 15) =      0.56806  eV     1   --> A              

 **************************************************************************

 **************************************************************************

                    xk=(  -0.02083,  -0.22853,   0.00000  )

     Band symmetry, C_1 (1)     point group:

     e(  1 -  1) =    -19.84200  eV     1   --> A              
     e(  2 -  2) =    -18.83733  eV     1   --> A              
     e(  3 -  3) =    -11.36818  eV     1   --> A              
     e(  4 -  4) =     -9.76469  eV     1   --> A              
     e(  5 -  5) =     -9.36392  eV     1   --> A              
     e(  6 -  6) =     -8.36559  eV     1   --> A              
     e(  7 -  7) =     -8.17550  eV     1   --> A              
     e(  8 -  8) =     -7.26086  eV     1   --> A              
     e(  9 -  9) =     -6.67684  eV     1   --> A              
     e( 10 - 10) =     -3.89996  eV     1   --> A              
     e( 11 - 11) =     -3.46439  eV     1   --> A              
     e( 12 - 12) =     -3.34537  eV     1   --> A              
     e( 13 - 13) =     -2.35410  eV     1   --> A              
     e( 14 - 14) =      0.28545  eV     1   --> A              
     e( 15 - 15) =      0.41076  eV     1   --> A              

 **************************************************************************

 **************************************************************************

                    xk=(  -0.02083,  -0.20448,   0.00000  )

     Band symmetry, C_1 (1)     point group:

     e(  1 -  1) =    -19.94831  eV     1   --> A              
     e(  2 -  2) =    -18.89062  eV     1   --> A              
     e(  3 -  3) =    -11.44506  eV     1   --> A              
     e(  4 -  4) =     -9.63004  eV     1   --> A              
     e(  5 -  5) =     -9.19301  eV     1   --> A              
     e(  6 -  6) =     -8.28525  eV     1   --> A              
     e(  7 -  7) =     -8.24781  eV     1   --> A              
     e(  8 -  8) =     -7.20827  eV     1   --> A              
     e(  9 -  9) =     -6.57740  eV     1   --> A              
     e( 10 - 10) =     -3.83044  eV     1   --> A              
     e( 11 - 11) =     -3.40007  eV     1   --> A              
     e( 12 - 12) =     -3.39024  eV     1   --> A              
     e( 13 - 13) =     -2.46587  eV     1   --> A              
     e( 14 - 14) =      0.15008  eV     1   --> A              
     e( 15 - 15) =      0.26564  eV     1   --> A              

 **************************************************************************

 **************************************************************************

                    xk=(  -0.02083,  -0.18042,   0.00000  )

     Band symmetry, C_1 (1)     point group:

     e(  1 -  1) =    -20.04549  eV     1   --> A              
     e(  2 -  2) =    -18.93947  eV     1   --> A              
     e(  3 -  3) =    -11.52888  eV     1   --> A              
     e(  4 -  4) =     -9.48780  eV     1   --> A              
     e(  5 -  5) =     -9.02417  eV     1   --> A              
     e(  6 -  6) =     -8.38756  eV     1   --> A              
     e(  7 -  7) =     -8.13083  eV     1   --> A              
     e(  8 -  8) =     -7.17763  eV     1   --> A              
     e(  9 -  9) =     -6.49324  eV     1   --> A              
     e( 10 - 10) =     -3.73433  eV     1   --> A              
     e( 11 - 11) =     -3.42565  eV     1   --> A              
     e( 12 - 12) =     -3.31382  eV     1   --> A              
     e( 13 - 13) =     -2.57946  eV     1   --> A              
     e( 14 - 14) =      0.02311  eV     1   --> A              
     e( 15 - 15) =      0.13406  eV     1   --> A              

 **************************************************************************

 **************************************************************************

                    xk=(  -0.02083,  -0.15637,   0.00000  )

     Band symmetry, C_1 (1)     point group:

     e(  1 -  1) =    -20.13255  eV     1   --> A              
     e(  2 -  2) =    -18.98334  eV     1   --> A              
     e(  3 -  3) =    -11.61267  eV     1   --> A              
     e(  4 -  4) =     -9.34523  eV     1   --> A              
     e(  5 -  5) =     -8.85789  eV     1   --> A              
     e(  6 -  6) =     -8.48066  eV     1   --> A              
     e(  7 -  7) =     -8.01737  eV     1   --> A              
     e(  8 -  8) =     -7.17264  eV     1   --> A              
     e(  9 -  9) =     -6.42633  eV     1   --> A              
     e( 10 - 10) =     -3.61608  eV     1   --> A              
     e( 11 - 11) =     -3.42180  eV     1   --> A              
     e( 12 - 12) =     -3.23784  eV     1   --> A              
     e( 13 - 13) =     -2.69174  eV     1   --> A              
     e( 14 - 14) =     -0.09473  eV     1   --> A              
     e( 15 - 15) =      0.01704  eV     1   --> A              

 **************************************************************************

 **************************************************************************

                    xk=(  -0.02083,  -0.13231,   0.00000  )

     Band symmetry, C_1 (1)     point group:

     e(  1 -  1) =    -20.20866  eV     1   --> A              
     e(  2 -  2) =    -19.02176  eV     1   --> A              
     e(  3 -  3) =    -11.69132  eV     1   --> A              
     e(  4 -  4) =     -9.20877  eV     1   --> A              
     e(  5 -  5) =     -8.69474  eV     1   --> A              
     e(  6 -  6) =     -8.56305  eV     1   --> A              
     e(  7 -  7) =     -7.91052  eV     1   --> A              
     e(  8 -  8) =     -7.19463  eV     1   --> A              
     e(  9 -  9) =     -6.37608  eV     1   --> A              
     e( 10 - 10) =     -3.48293  eV     1   --> A              
     e( 11 - 11) =     -3.39161  eV     1   --> A              
     e( 12 - 12) =     -3.16518  eV     1   --> A              
     e( 13 - 13) =     -2.79912  eV     1   --> A              
     e( 14 - 14) =     -0.20287  eV     1   --> A              
     e( 15 - 15) =     -0.08467  eV     1   --> A              

 **************************************************************************

 **************************************************************************

                    xk=(  -0.02083,  -0.10825,   0.00000  )

     Band symmetry, C_1 (1)     point group:

     e(  1 -  1) =    -20.27312  eV     1   --> A              
     e(  2 -  2) =    -19.05434  eV     1   --> A              
     e(  3 -  3) =    -11.76120  eV     1   --> A              
     e(  4 -  4) =     -9.08425  eV     1   --> A              
     e(  5 -  5) =     -8.63352  eV     1   --> A              
     e(  6 -  6) =     -8.53571  eV     1   --> A              
     e(  7 -  7) =     -7.81368  eV     1   --> A              
     e(  8 -  8) =     -7.24221  eV     1   --> A              
     e(  9 -  9) =     -6.34031  eV     1   --> A              
     e( 10 - 10) =     -3.34434  eV     1   --> A              
     e( 11 - 11) =     -3.34175  eV     1   --> A              
     e( 12 - 12) =     -3.09872  eV     1   --> A              
     e( 13 - 13) =     -2.89764  eV     1   --> A              
     e( 14 - 14) =     -0.30058  eV     1   --> A              
     e( 15 - 15) =     -0.17047  eV     1   --> A              

 **************************************************************************

 **************************************************************************

                    xk=(  -0.02083,  -0.08420,   0.00000  )

     Band symmetry, C_1 (1)     point group:

     e(  1 -  1) =    -20.32536  eV     1   --> A              
     e(  2 -  2) =    -19.08077  eV     1   --> A              
     e(  3 -  3) =    -11.81971  eV     1   --> A              
     e(  4 -  4) =     -8.97699  eV     1   --> A              
     e(  5 -  5) =     -8.69104  eV     1   --> A              
     e(  6 -  6) =     -8.38272  eV     1   --> A              
     e(  7 -  7) =     -7.73037  eV     1   --> A              
     e(  8 -  8) =     -7.31134  eV     1   --> A              
     e(  9 -  9) =     -6.31613  eV     1   --> A              
     e( 10 - 10) =     -3.28177  eV     1   --> A              
     e( 11 - 11) =     -3.21130  eV     1   --> A              
     e( 12 - 12) =     -3.04131  eV     1   --> A              
     e( 13 - 13) =     -2.98317  eV     1   --> A              
     e( 14 - 14) =     -0.38645  eV     1   --> A              
     e( 15 - 15) =     -0.23985  eV     1   --> A              

 **************************************************************************

 **************************************************************************

                    xk=(  -0.02083,  -0.06014,   0.00000  )

     Band symmetry, C_1 (1)     point group:

     e(  1 -  1) =    -20.36492  eV     1   --> A              
     e(  2 -  2) =    -19.10080  eV     1   --> A              
     e(  3 -  3) =    -11.86500  eV     1   --> A              
     e(  4 -  4) =     -8.89176  eV     1   --> A              
     e(  5 -  5) =     -8.73485  eV     1   --> A              
     e(  6 -  6) =     -8.23987  eV     1   --> A              
     e(  7 -  7) =     -7.66408  eV     1   --> A              
     e(  8 -  8) =     -7.39494  eV     1   --> A              
     e(  9 -  9) =     -6.30075  eV     1   --> A              
     e( 10 - 10) =     -3.22281  eV     1   --> A              
     e( 11 - 11) =     -3.09575  eV     1   --> A              
     e( 12 - 12) =     -3.05170  eV     1   --> A              
     e( 13 - 13) =     -2.99559  eV     1   --> A              
     e( 14 - 14) =     -0.45776  eV     1   --> A              
     e( 15 - 15) =     -0.29239  eV     1   --> A              

 **************************************************************************

 **************************************************************************

                    xk=(  -0.02083,  -0.03608,   0.00000  )

     Band symmetry, C_1 (1)     point group:

     e(  1 -  1) =    -20.39149  eV     1   --> A              
     e(  2 -  2) =    -19.11426  eV     1   --> A              
     e(  3 -  3) =    -11.89583  eV     1   --> A              
     e(  4 -  4) =     -8.83250  eV     1   --> A              
     e(  5 -  5) =     -8.76437  eV     1   --> A              
     e(  6 -  6) =     -8.11666  eV     1   --> A              
     e(  7 -  7) =     -7.61796  eV     1   --> A              
     e(  8 -  8) =     -7.48050  eV     1   --> A              
     e(  9 -  9) =     -6.29183  eV     1   --> A              
     e( 10 - 10) =     -3.17590  eV     1   --> A              
     e( 11 - 11) =     -3.09964  eV     1   --> A              
     e( 12 - 12) =     -3.00967  eV     1   --> A              
     e( 13 - 13) =     -2.96376  eV     1   --> A              
     e( 14 - 14) =     -0.51007  eV     1   --> A              
     e( 15 - 15) =     -0.32768  eV     1   --> A              

 **************************************************************************
 
     BANDS        :     44.51s CPU     48.03s WALL

 
   This run was terminated on:   0:34:17   2Feb2026            

=------------------------------------------------------------------------------=
   JOB DONE.
=------------------------------------------------------------------------------=
