
     Program PHONON v.7.5 starts on  2Feb2026 at  0: 6:20 

     This program is part of the open-source Quantum ESPRESSO suite
     for quantum simulation of materials; please cite
         "P. Giannozzi et al., J. Phys.:Condens. Matter 21 395502 (2009);
         "P. Giannozzi et al., J. Phys.:Condens. Matter 29 465901 (2017);
         "P. Giannozzi et al., J. Chem. Phys. 152 154105 (2020);
          URL http://www.quantum-espresso.org", 
     in publications or presentations arising from this work. More details at
     http://www.quantum-espresso.org/quote

     Parallel version (MPI), running on    48 processors

     MPI processes distributed on     1 nodes
     312252 MiB available memory on the printing compute node when the environment starts
 
     Waiting for input...
     Reading input from standard input

     Reading xml data from directory:

     ./tmp/mos2.save/
 
     R & G space division:  proc/nbgrp/npool/nimage =      48
     Subspace diagonalization in iterative solution of the eigenvalue problem:
     a serial algorithm will be used


     IMPORTANT: XC functional enforced from input :
     Exchange-correlation= PZ
                           (   1   1   0   0   0   0   0)
     Any further DFT definition will be discarded
     Please, verify this is what you really want

 
     Parallelization info
     --------------------
     sticks:   dense  smooth     PW     G-vecs:    dense   smooth      PW
     Min          24      24      7                 5318     5318     861
     Max          25      25      8                 5359     5359     896
     Sum        1159    1159    349               255923   255923   42169
 
     Using Slab Decomposition
 
 ----2D----2D----2D----2D----2D----2D----2D----2D----2D----2D----2D----2D
  The code is running with the 2D cutoff
  Please refer to:
  Sohier, T., Calandra, M., & Mauri, F. (2017), 
  Density functional perturbation theory for gated two-dimensional heterostructu
 res:
  Theoretical developments and application to flexural phonons in graphene.
  Physical Review B, 96(7), 75448. https://doi.org/10.1103/PhysRevB.96.075448
 ----2D----2D----2D----2D----2D----2D----2D----2D----2D----2D----2D----2D
     Reading collected, re-writing distributed wavefunctions in ./tmp/

     Number and degeneracy of irreps per q-point
       N         xq(1)         xq(2)         xq(3)   N irreps
       1   0.000000000   0.000000000   0.000000000       9
     No degeneracy

     Saving dvscf to file. Distribute only q points, not irreducible representations.

     Calculation of q =    0.0000000   0.0000000   0.0000000

     phonons                                                                    

     bravais-lattice index     =            4
     lattice parameter (alat)  =       5.9330  a.u.
     unit-cell volume          =    1440.1845 (a.u.)^3
     number of atoms/cell      =            3
     number of atomic types    =            2
     kinetic-energy cut-off    =     120.0000  Ry
     charge density cut-off    =     480.0000  Ry
     convergence threshold     =      1.0E-15
     beta                      =       0.3000
     number of iterations used =           20
     Exchange-correlation= PZ
                           (   1   1   0   0   0   0   0)


     celldm(1)=    5.93300  celldm(2)=    0.00000  celldm(3)=    7.96278
     celldm(4)=    0.00000  celldm(5)=    0.00000  celldm(6)=    0.00000

     crystal axes: (cart. coord. in units of alat)
               a(1) = (  1.0000  0.0000  0.0000 )  
               a(2) = ( -0.5000  0.8660  0.0000 )  
               a(3) = (  0.0000  0.0000  7.9628 )  

     reciprocal axes: (cart. coord. in units 2 pi/alat)
               b(1) = (  1.0000  0.5774  0.0000 )  
               b(2) = (  0.0000  1.1547  0.0000 )  
               b(3) = (  0.0000  0.0000  0.1256 )  


     Atoms inside the unit cell: 

     Cartesian axes

     site n.  atom      mass           positions (alat units)
        1  Mo     95.9420   tau(    1) = (   -0.00000    0.57735    3.98139  )
        2  S      32.0650   tau(    2) = (    0.50000    0.28868    4.47888  )
        3  S      32.0650   tau(    3) = (    0.50000    0.28868    3.48390  )

     Computing dynamical matrix for 
                    q = (   0.0000000   0.0000000   0.0000000 )
 
     No symmetry!
                                    s                        frac. trans.

      isym =  1     identity                                     

 cryst.   s( 1) = (     1          0          0      )
                  (     0          1          0      )
                  (     0          0          1      )

 cart.    s( 1) = (  1.0000000  0.0000000  0.0000000 )
                  (  0.0000000  1.0000000  0.0000000 )
                  (  0.0000000  0.0000000  1.0000000 )


     G cutoff =  427.9865  (   5328 G-vectors)     FFT grid: ( 45, 45,360)
     number of k points=   144
                       cart. coord. in units 2pi/alat
        k(    1) = (   0.0000000   0.0000000   0.0000000), wk =   0.0138889
        k(    2) = (   0.0000000   0.0962250   0.0000000), wk =   0.0138889
        k(    3) = (   0.0000000   0.1924501   0.0000000), wk =   0.0138889
        k(    4) = (   0.0000000   0.2886751   0.0000000), wk =   0.0138889
        k(    5) = (   0.0000000   0.3849002   0.0000000), wk =   0.0138889
        k(    6) = (   0.0000000   0.4811252   0.0000000), wk =   0.0138889
        k(    7) = (   0.0000000  -0.5773503   0.0000000), wk =   0.0138889
        k(    8) = (   0.0000000  -0.4811252   0.0000000), wk =   0.0138889
        k(    9) = (   0.0000000  -0.3849002   0.0000000), wk =   0.0138889
        k(   10) = (   0.0000000  -0.2886751   0.0000000), wk =   0.0138889
        k(   11) = (   0.0000000  -0.1924501   0.0000000), wk =   0.0138889
        k(   12) = (   0.0000000  -0.0962250   0.0000000), wk =   0.0138889
        k(   13) = (   0.0833333   0.0481125   0.0000000), wk =   0.0138889
        k(   14) = (   0.0833333   0.1443376   0.0000000), wk =   0.0138889
        k(   15) = (   0.0833333   0.2405626   0.0000000), wk =   0.0138889
        k(   16) = (   0.0833333   0.3367877   0.0000000), wk =   0.0138889
        k(   17) = (   0.0833333   0.4330127   0.0000000), wk =   0.0138889
        k(   18) = (   0.0833333   0.5292377   0.0000000), wk =   0.0138889
        k(   19) = (   0.0833333  -0.5292377   0.0000000), wk =   0.0138889
        k(   20) = (   0.0833333  -0.4330127   0.0000000), wk =   0.0138889
        k(   21) = (   0.0833333  -0.3367877   0.0000000), wk =   0.0138889
        k(   22) = (   0.0833333  -0.2405626   0.0000000), wk =   0.0138889
        k(   23) = (   0.0833333  -0.1443376   0.0000000), wk =   0.0138889
        k(   24) = (   0.0833333  -0.0481125   0.0000000), wk =   0.0138889
        k(   25) = (   0.1666667   0.0962250   0.0000000), wk =   0.0138889
        k(   26) = (   0.1666667   0.1924501   0.0000000), wk =   0.0138889
        k(   27) = (   0.1666667   0.2886751   0.0000000), wk =   0.0138889
        k(   28) = (   0.1666667   0.3849002   0.0000000), wk =   0.0138889
        k(   29) = (   0.1666667   0.4811252   0.0000000), wk =   0.0138889
        k(   30) = (   0.1666667   0.5773503   0.0000000), wk =   0.0138889
        k(   31) = (   0.1666667  -0.4811252   0.0000000), wk =   0.0138889
        k(   32) = (   0.1666667  -0.3849002   0.0000000), wk =   0.0138889
        k(   33) = (   0.1666667  -0.2886751   0.0000000), wk =   0.0138889
        k(   34) = (   0.1666667  -0.1924501   0.0000000), wk =   0.0138889
        k(   35) = (   0.1666667  -0.0962250   0.0000000), wk =   0.0138889
        k(   36) = (   0.1666667  -0.0000000   0.0000000), wk =   0.0138889
        k(   37) = (   0.2500000   0.1443376   0.0000000), wk =   0.0138889
        k(   38) = (   0.2500000   0.2405626   0.0000000), wk =   0.0138889
        k(   39) = (   0.2500000   0.3367877   0.0000000), wk =   0.0138889
        k(   40) = (   0.2500000   0.4330127   0.0000000), wk =   0.0138889
        k(   41) = (   0.2500000   0.5292377   0.0000000), wk =   0.0138889
        k(   42) = (   0.2500000   0.6254628   0.0000000), wk =   0.0138889
        k(   43) = (   0.2500000  -0.4330127   0.0000000), wk =   0.0138889
        k(   44) = (   0.2500000  -0.3367877   0.0000000), wk =   0.0138889
        k(   45) = (   0.2500000  -0.2405626   0.0000000), wk =   0.0138889
        k(   46) = (   0.2500000  -0.1443376   0.0000000), wk =   0.0138889
        k(   47) = (   0.2500000  -0.0481125   0.0000000), wk =   0.0138889
        k(   48) = (   0.2500000   0.0481125   0.0000000), wk =   0.0138889
        k(   49) = (   0.3333333   0.1924501   0.0000000), wk =   0.0138889
        k(   50) = (   0.3333333   0.2886751   0.0000000), wk =   0.0138889
        k(   51) = (   0.3333333   0.3849002   0.0000000), wk =   0.0138889
        k(   52) = (   0.3333333   0.4811252   0.0000000), wk =   0.0138889
        k(   53) = (   0.3333333   0.5773503   0.0000000), wk =   0.0138889
        k(   54) = (   0.3333333   0.6735753   0.0000000), wk =   0.0138889
        k(   55) = (   0.3333333  -0.3849002   0.0000000), wk =   0.0138889
        k(   56) = (   0.3333333  -0.2886751   0.0000000), wk =   0.0138889
        k(   57) = (   0.3333333  -0.1924501   0.0000000), wk =   0.0138889
        k(   58) = (   0.3333333  -0.0962250   0.0000000), wk =   0.0138889
        k(   59) = (   0.3333333  -0.0000000   0.0000000), wk =   0.0138889
        k(   60) = (   0.3333333   0.0962250   0.0000000), wk =   0.0138889
        k(   61) = (   0.4166667   0.2405626   0.0000000), wk =   0.0138889
        k(   62) = (   0.4166667   0.3367877   0.0000000), wk =   0.0138889
        k(   63) = (   0.4166667   0.4330127   0.0000000), wk =   0.0138889
        k(   64) = (   0.4166667   0.5292377   0.0000000), wk =   0.0138889
        k(   65) = (   0.4166667   0.6254628   0.0000000), wk =   0.0138889
        k(   66) = (   0.4166667   0.7216878   0.0000000), wk =   0.0138889
        k(   67) = (   0.4166667  -0.3367877   0.0000000), wk =   0.0138889
        k(   68) = (   0.4166667  -0.2405626   0.0000000), wk =   0.0138889
        k(   69) = (   0.4166667  -0.1443376   0.0000000), wk =   0.0138889
        k(   70) = (   0.4166667  -0.0481125   0.0000000), wk =   0.0138889
        k(   71) = (   0.4166667   0.0481125   0.0000000), wk =   0.0138889
        k(   72) = (   0.4166667   0.1443376   0.0000000), wk =   0.0138889
        k(   73) = (  -0.5000000  -0.2886751   0.0000000), wk =   0.0138889
        k(   74) = (  -0.5000000  -0.1924501   0.0000000), wk =   0.0138889
        k(   75) = (  -0.5000000  -0.0962250   0.0000000), wk =   0.0138889
        k(   76) = (  -0.5000000   0.0000000   0.0000000), wk =   0.0138889
        k(   77) = (  -0.5000000   0.0962250   0.0000000), wk =   0.0138889
        k(   78) = (  -0.5000000   0.1924501   0.0000000), wk =   0.0138889
        k(   79) = (  -0.5000000  -0.8660254   0.0000000), wk =   0.0138889
        k(   80) = (  -0.5000000  -0.7698004   0.0000000), wk =   0.0138889
        k(   81) = (  -0.5000000  -0.6735753   0.0000000), wk =   0.0138889
        k(   82) = (  -0.5000000  -0.5773503   0.0000000), wk =   0.0138889
        k(   83) = (  -0.5000000  -0.4811252   0.0000000), wk =   0.0138889
        k(   84) = (  -0.5000000  -0.3849002   0.0000000), wk =   0.0138889
        k(   85) = (  -0.4166667  -0.2405626   0.0000000), wk =   0.0138889
        k(   86) = (  -0.4166667  -0.1443376   0.0000000), wk =   0.0138889
        k(   87) = (  -0.4166667  -0.0481125   0.0000000), wk =   0.0138889
        k(   88) = (  -0.4166667   0.0481125   0.0000000), wk =   0.0138889
        k(   89) = (  -0.4166667   0.1443376   0.0000000), wk =   0.0138889
        k(   90) = (  -0.4166667   0.2405626   0.0000000), wk =   0.0138889
        k(   91) = (  -0.4166667  -0.8179129   0.0000000), wk =   0.0138889
        k(   92) = (  -0.4166667  -0.7216878   0.0000000), wk =   0.0138889
        k(   93) = (  -0.4166667  -0.6254628   0.0000000), wk =   0.0138889
        k(   94) = (  -0.4166667  -0.5292377   0.0000000), wk =   0.0138889
        k(   95) = (  -0.4166667  -0.4330127   0.0000000), wk =   0.0138889
        k(   96) = (  -0.4166667  -0.3367877   0.0000000), wk =   0.0138889
        k(   97) = (  -0.3333333  -0.1924501   0.0000000), wk =   0.0138889
        k(   98) = (  -0.3333333  -0.0962250   0.0000000), wk =   0.0138889
        k(   99) = (  -0.3333333  -0.0000000   0.0000000), wk =   0.0138889
        k(  100) = (  -0.3333333   0.0962250   0.0000000), wk =   0.0138889
        k(  101) = (  -0.3333333   0.1924501   0.0000000), wk =   0.0138889
        k(  102) = (  -0.3333333   0.2886751   0.0000000), wk =   0.0138889
        k(  103) = (  -0.3333333  -0.7698004   0.0000000), wk =   0.0138889
        k(  104) = (  -0.3333333  -0.6735753   0.0000000), wk =   0.0138889
        k(  105) = (  -0.3333333  -0.5773503   0.0000000), wk =   0.0138889
        k(  106) = (  -0.3333333  -0.4811252   0.0000000), wk =   0.0138889
        k(  107) = (  -0.3333333  -0.3849002   0.0000000), wk =   0.0138889
        k(  108) = (  -0.3333333  -0.2886751   0.0000000), wk =   0.0138889
        k(  109) = (  -0.2500000  -0.1443376   0.0000000), wk =   0.0138889
        k(  110) = (  -0.2500000  -0.0481125   0.0000000), wk =   0.0138889
        k(  111) = (  -0.2500000   0.0481125   0.0000000), wk =   0.0138889
        k(  112) = (  -0.2500000   0.1443376   0.0000000), wk =   0.0138889
        k(  113) = (  -0.2500000   0.2405626   0.0000000), wk =   0.0138889
        k(  114) = (  -0.2500000   0.3367877   0.0000000), wk =   0.0138889
        k(  115) = (  -0.2500000  -0.7216878   0.0000000), wk =   0.0138889
        k(  116) = (  -0.2500000  -0.6254628   0.0000000), wk =   0.0138889
        k(  117) = (  -0.2500000  -0.5292377   0.0000000), wk =   0.0138889
        k(  118) = (  -0.2500000  -0.4330127   0.0000000), wk =   0.0138889
        k(  119) = (  -0.2500000  -0.3367877   0.0000000), wk =   0.0138889
        k(  120) = (  -0.2500000  -0.2405626   0.0000000), wk =   0.0138889
        k(  121) = (  -0.1666667  -0.0962250   0.0000000), wk =   0.0138889
        k(  122) = (  -0.1666667  -0.0000000   0.0000000), wk =   0.0138889
        k(  123) = (  -0.1666667   0.0962250   0.0000000), wk =   0.0138889
        k(  124) = (  -0.1666667   0.1924501   0.0000000), wk =   0.0138889
        k(  125) = (  -0.1666667   0.2886751   0.0000000), wk =   0.0138889
        k(  126) = (  -0.1666667   0.3849002   0.0000000), wk =   0.0138889
        k(  127) = (  -0.1666667  -0.6735753   0.0000000), wk =   0.0138889
        k(  128) = (  -0.1666667  -0.5773503   0.0000000), wk =   0.0138889
        k(  129) = (  -0.1666667  -0.4811252   0.0000000), wk =   0.0138889
        k(  130) = (  -0.1666667  -0.3849002   0.0000000), wk =   0.0138889
        k(  131) = (  -0.1666667  -0.2886751   0.0000000), wk =   0.0138889
        k(  132) = (  -0.1666667  -0.1924501   0.0000000), wk =   0.0138889
        k(  133) = (  -0.0833333  -0.0481125   0.0000000), wk =   0.0138889
        k(  134) = (  -0.0833333   0.0481125   0.0000000), wk =   0.0138889
        k(  135) = (  -0.0833333   0.1443376   0.0000000), wk =   0.0138889
        k(  136) = (  -0.0833333   0.2405626   0.0000000), wk =   0.0138889
        k(  137) = (  -0.0833333   0.3367877   0.0000000), wk =   0.0138889
        k(  138) = (  -0.0833333   0.4330127   0.0000000), wk =   0.0138889
        k(  139) = (  -0.0833333  -0.6254628   0.0000000), wk =   0.0138889
        k(  140) = (  -0.0833333  -0.5292377   0.0000000), wk =   0.0138889
        k(  141) = (  -0.0833333  -0.4330127   0.0000000), wk =   0.0138889
        k(  142) = (  -0.0833333  -0.3367877   0.0000000), wk =   0.0138889
        k(  143) = (  -0.0833333  -0.2405626   0.0000000), wk =   0.0138889
        k(  144) = (  -0.0833333  -0.1443376   0.0000000), wk =   0.0138889

                       cryst. coord.
        k(    1) = (   0.0000000   0.0000000   0.0000000), wk =   0.0138889
        k(    2) = (   0.0000000   0.0833333   0.0000000), wk =   0.0138889
        k(    3) = (   0.0000000   0.1666667   0.0000000), wk =   0.0138889
        k(    4) = (   0.0000000   0.2500000   0.0000000), wk =   0.0138889
        k(    5) = (   0.0000000   0.3333333   0.0000000), wk =   0.0138889
        k(    6) = (   0.0000000   0.4166667   0.0000000), wk =   0.0138889
        k(    7) = (   0.0000000  -0.5000000   0.0000000), wk =   0.0138889
        k(    8) = (   0.0000000  -0.4166667   0.0000000), wk =   0.0138889
        k(    9) = (   0.0000000  -0.3333333   0.0000000), wk =   0.0138889
        k(   10) = (   0.0000000  -0.2500000   0.0000000), wk =   0.0138889
        k(   11) = (   0.0000000  -0.1666667   0.0000000), wk =   0.0138889
        k(   12) = (   0.0000000  -0.0833333   0.0000000), wk =   0.0138889
        k(   13) = (   0.0833333   0.0000000   0.0000000), wk =   0.0138889
        k(   14) = (   0.0833333   0.0833333   0.0000000), wk =   0.0138889
        k(   15) = (   0.0833333   0.1666667   0.0000000), wk =   0.0138889
        k(   16) = (   0.0833333   0.2500000   0.0000000), wk =   0.0138889
        k(   17) = (   0.0833333   0.3333333   0.0000000), wk =   0.0138889
        k(   18) = (   0.0833333   0.4166667   0.0000000), wk =   0.0138889
        k(   19) = (   0.0833333  -0.5000000   0.0000000), wk =   0.0138889
        k(   20) = (   0.0833333  -0.4166667   0.0000000), wk =   0.0138889
        k(   21) = (   0.0833333  -0.3333333   0.0000000), wk =   0.0138889
        k(   22) = (   0.0833333  -0.2500000   0.0000000), wk =   0.0138889
        k(   23) = (   0.0833333  -0.1666667   0.0000000), wk =   0.0138889
        k(   24) = (   0.0833333  -0.0833333   0.0000000), wk =   0.0138889
        k(   25) = (   0.1666667   0.0000000   0.0000000), wk =   0.0138889
        k(   26) = (   0.1666667   0.0833333   0.0000000), wk =   0.0138889
        k(   27) = (   0.1666667   0.1666667   0.0000000), wk =   0.0138889
        k(   28) = (   0.1666667   0.2500000   0.0000000), wk =   0.0138889
        k(   29) = (   0.1666667   0.3333333   0.0000000), wk =   0.0138889
        k(   30) = (   0.1666667   0.4166667   0.0000000), wk =   0.0138889
        k(   31) = (   0.1666667  -0.5000000   0.0000000), wk =   0.0138889
        k(   32) = (   0.1666667  -0.4166667   0.0000000), wk =   0.0138889
        k(   33) = (   0.1666667  -0.3333333   0.0000000), wk =   0.0138889
        k(   34) = (   0.1666667  -0.2500000   0.0000000), wk =   0.0138889
        k(   35) = (   0.1666667  -0.1666667   0.0000000), wk =   0.0138889
        k(   36) = (   0.1666667  -0.0833333   0.0000000), wk =   0.0138889
        k(   37) = (   0.2500000  -0.0000000   0.0000000), wk =   0.0138889
        k(   38) = (   0.2500000   0.0833333   0.0000000), wk =   0.0138889
        k(   39) = (   0.2500000   0.1666667   0.0000000), wk =   0.0138889
        k(   40) = (   0.2500000   0.2500000   0.0000000), wk =   0.0138889
        k(   41) = (   0.2500000   0.3333333   0.0000000), wk =   0.0138889
        k(   42) = (   0.2500000   0.4166667   0.0000000), wk =   0.0138889
        k(   43) = (   0.2500000  -0.5000000   0.0000000), wk =   0.0138889
        k(   44) = (   0.2500000  -0.4166667   0.0000000), wk =   0.0138889
        k(   45) = (   0.2500000  -0.3333333   0.0000000), wk =   0.0138889
        k(   46) = (   0.2500000  -0.2500000   0.0000000), wk =   0.0138889
        k(   47) = (   0.2500000  -0.1666667   0.0000000), wk =   0.0138889
        k(   48) = (   0.2500000  -0.0833333   0.0000000), wk =   0.0138889
        k(   49) = (   0.3333333   0.0000000   0.0000000), wk =   0.0138889
        k(   50) = (   0.3333333   0.0833333   0.0000000), wk =   0.0138889
        k(   51) = (   0.3333333   0.1666667   0.0000000), wk =   0.0138889
        k(   52) = (   0.3333333   0.2500000   0.0000000), wk =   0.0138889
        k(   53) = (   0.3333333   0.3333333   0.0000000), wk =   0.0138889
        k(   54) = (   0.3333333   0.4166667   0.0000000), wk =   0.0138889
        k(   55) = (   0.3333333  -0.5000000   0.0000000), wk =   0.0138889
        k(   56) = (   0.3333333  -0.4166667   0.0000000), wk =   0.0138889
        k(   57) = (   0.3333333  -0.3333333   0.0000000), wk =   0.0138889
        k(   58) = (   0.3333333  -0.2500000   0.0000000), wk =   0.0138889
        k(   59) = (   0.3333333  -0.1666667   0.0000000), wk =   0.0138889
        k(   60) = (   0.3333333  -0.0833333   0.0000000), wk =   0.0138889
        k(   61) = (   0.4166667  -0.0000000   0.0000000), wk =   0.0138889
        k(   62) = (   0.4166667   0.0833333   0.0000000), wk =   0.0138889
        k(   63) = (   0.4166667   0.1666667   0.0000000), wk =   0.0138889
        k(   64) = (   0.4166667   0.2500000   0.0000000), wk =   0.0138889
        k(   65) = (   0.4166667   0.3333333   0.0000000), wk =   0.0138889
        k(   66) = (   0.4166667   0.4166667   0.0000000), wk =   0.0138889
        k(   67) = (   0.4166667  -0.5000000   0.0000000), wk =   0.0138889
        k(   68) = (   0.4166667  -0.4166667   0.0000000), wk =   0.0138889
        k(   69) = (   0.4166667  -0.3333333   0.0000000), wk =   0.0138889
        k(   70) = (   0.4166667  -0.2500000   0.0000000), wk =   0.0138889
        k(   71) = (   0.4166667  -0.1666667   0.0000000), wk =   0.0138889
        k(   72) = (   0.4166667  -0.0833333   0.0000000), wk =   0.0138889
        k(   73) = (  -0.5000000   0.0000000   0.0000000), wk =   0.0138889
        k(   74) = (  -0.5000000   0.0833333   0.0000000), wk =   0.0138889
        k(   75) = (  -0.5000000   0.1666667   0.0000000), wk =   0.0138889
        k(   76) = (  -0.5000000   0.2500000   0.0000000), wk =   0.0138889
        k(   77) = (  -0.5000000   0.3333333   0.0000000), wk =   0.0138889
        k(   78) = (  -0.5000000   0.4166667   0.0000000), wk =   0.0138889
        k(   79) = (  -0.5000000  -0.5000000   0.0000000), wk =   0.0138889
        k(   80) = (  -0.5000000  -0.4166667   0.0000000), wk =   0.0138889
        k(   81) = (  -0.5000000  -0.3333333   0.0000000), wk =   0.0138889
        k(   82) = (  -0.5000000  -0.2500000   0.0000000), wk =   0.0138889
        k(   83) = (  -0.5000000  -0.1666667   0.0000000), wk =   0.0138889
        k(   84) = (  -0.5000000  -0.0833333   0.0000000), wk =   0.0138889
        k(   85) = (  -0.4166667   0.0000000   0.0000000), wk =   0.0138889
        k(   86) = (  -0.4166667   0.0833333   0.0000000), wk =   0.0138889
        k(   87) = (  -0.4166667   0.1666667   0.0000000), wk =   0.0138889
        k(   88) = (  -0.4166667   0.2500000   0.0000000), wk =   0.0138889
        k(   89) = (  -0.4166667   0.3333333   0.0000000), wk =   0.0138889
        k(   90) = (  -0.4166667   0.4166667   0.0000000), wk =   0.0138889
        k(   91) = (  -0.4166667  -0.5000000   0.0000000), wk =   0.0138889
        k(   92) = (  -0.4166667  -0.4166667   0.0000000), wk =   0.0138889
        k(   93) = (  -0.4166667  -0.3333333   0.0000000), wk =   0.0138889
        k(   94) = (  -0.4166667  -0.2500000   0.0000000), wk =   0.0138889
        k(   95) = (  -0.4166667  -0.1666667   0.0000000), wk =   0.0138889
        k(   96) = (  -0.4166667  -0.0833333   0.0000000), wk =   0.0138889
        k(   97) = (  -0.3333333  -0.0000000   0.0000000), wk =   0.0138889
        k(   98) = (  -0.3333333   0.0833333   0.0000000), wk =   0.0138889
        k(   99) = (  -0.3333333   0.1666667   0.0000000), wk =   0.0138889
        k(  100) = (  -0.3333333   0.2500000   0.0000000), wk =   0.0138889
        k(  101) = (  -0.3333333   0.3333333   0.0000000), wk =   0.0138889
        k(  102) = (  -0.3333333   0.4166667   0.0000000), wk =   0.0138889
        k(  103) = (  -0.3333333  -0.5000000   0.0000000), wk =   0.0138889
        k(  104) = (  -0.3333333  -0.4166667   0.0000000), wk =   0.0138889
        k(  105) = (  -0.3333333  -0.3333333   0.0000000), wk =   0.0138889
        k(  106) = (  -0.3333333  -0.2500000   0.0000000), wk =   0.0138889
        k(  107) = (  -0.3333333  -0.1666667   0.0000000), wk =   0.0138889
        k(  108) = (  -0.3333333  -0.0833333   0.0000000), wk =   0.0138889
        k(  109) = (  -0.2500000   0.0000000   0.0000000), wk =   0.0138889
        k(  110) = (  -0.2500000   0.0833333   0.0000000), wk =   0.0138889
        k(  111) = (  -0.2500000   0.1666667   0.0000000), wk =   0.0138889
        k(  112) = (  -0.2500000   0.2500000   0.0000000), wk =   0.0138889
        k(  113) = (  -0.2500000   0.3333333   0.0000000), wk =   0.0138889
        k(  114) = (  -0.2500000   0.4166667   0.0000000), wk =   0.0138889
        k(  115) = (  -0.2500000  -0.5000000   0.0000000), wk =   0.0138889
        k(  116) = (  -0.2500000  -0.4166667   0.0000000), wk =   0.0138889
        k(  117) = (  -0.2500000  -0.3333333   0.0000000), wk =   0.0138889
        k(  118) = (  -0.2500000  -0.2500000   0.0000000), wk =   0.0138889
        k(  119) = (  -0.2500000  -0.1666667   0.0000000), wk =   0.0138889
        k(  120) = (  -0.2500000  -0.0833333   0.0000000), wk =   0.0138889
        k(  121) = (  -0.1666667   0.0000000   0.0000000), wk =   0.0138889
        k(  122) = (  -0.1666667   0.0833333   0.0000000), wk =   0.0138889
        k(  123) = (  -0.1666667   0.1666667   0.0000000), wk =   0.0138889
        k(  124) = (  -0.1666667   0.2500000   0.0000000), wk =   0.0138889
        k(  125) = (  -0.1666667   0.3333333   0.0000000), wk =   0.0138889
        k(  126) = (  -0.1666667   0.4166667   0.0000000), wk =   0.0138889
        k(  127) = (  -0.1666667  -0.5000000   0.0000000), wk =   0.0138889
        k(  128) = (  -0.1666667  -0.4166667   0.0000000), wk =   0.0138889
        k(  129) = (  -0.1666667  -0.3333333   0.0000000), wk =   0.0138889
        k(  130) = (  -0.1666667  -0.2500000   0.0000000), wk =   0.0138889
        k(  131) = (  -0.1666667  -0.1666667   0.0000000), wk =   0.0138889
        k(  132) = (  -0.1666667  -0.0833333   0.0000000), wk =   0.0138889
        k(  133) = (  -0.0833333  -0.0000000   0.0000000), wk =   0.0138889
        k(  134) = (  -0.0833333   0.0833333   0.0000000), wk =   0.0138889
        k(  135) = (  -0.0833333   0.1666667   0.0000000), wk =   0.0138889
        k(  136) = (  -0.0833333   0.2500000   0.0000000), wk =   0.0138889
        k(  137) = (  -0.0833333   0.3333333   0.0000000), wk =   0.0138889
        k(  138) = (  -0.0833333   0.4166667   0.0000000), wk =   0.0138889
        k(  139) = (  -0.0833333  -0.5000000   0.0000000), wk =   0.0138889
        k(  140) = (  -0.0833333  -0.4166667   0.0000000), wk =   0.0138889
        k(  141) = (  -0.0833333  -0.3333333   0.0000000), wk =   0.0138889
        k(  142) = (  -0.0833333  -0.2500000   0.0000000), wk =   0.0138889
        k(  143) = (  -0.0833333  -0.1666667   0.0000000), wk =   0.0138889
        k(  144) = (  -0.0833333  -0.0833333   0.0000000), wk =   0.0138889

     PseudoPot. # 1 for Mo read from file:
     ./Mo.pz-hgh.UPF
     MD5 check sum: 510e36645586a760ed3cd5614e91e830
     Pseudo is Norm-conserving, Zval =  6.0
     Generated in analytical, separable form
     Using radial grid of 1229 points,  6 beta functions with: 
                l(1) =   0
                l(2) =   0
                l(3) =   1
                l(4) =   1
                l(5) =   2
                l(6) =   2

     PseudoPot. # 2 for S  read from file:
     ./S.pz-hgh.UPF
     MD5 check sum: fdda2a7ddb80a5bdde23f0593523f925
     Pseudo is Norm-conserving, Zval =  6.0
     Generated in analytical, separable form
     Using radial grid of 1151 points,  3 beta functions with: 
                l(1) =   0
                l(2) =   0
                l(3) =   1

     point group C_1 (1)    
     there are  1 classes
     the character table:

       E    
A      1.00

     the symmetry operations in each class and the name of the first element:

     E        1
                                                                 


     Atomic displacements:
     There are    9 irreducible representations

     Representation     1      1 modes -  To be done
     Irreps are as follows:

                     mode #   1
                     (   1.00000   0.00000   ) 
                     (   0.00000   0.00000   ) 
                     (   0.00000   0.00000   ) 
                     (   0.00000   0.00000   ) 
                     (   0.00000   0.00000   ) 
                     (   0.00000   0.00000   ) 
                     (   0.00000   0.00000   ) 
                     (   0.00000   0.00000   ) 
                     (   0.00000   0.00000   ) 

     Representation     2      1 modes -  To be done
     Irreps are as follows:

                     mode #   2
                     (   0.00000   0.00000   ) 
                     (   1.00000   0.00000   ) 
                     (   0.00000   0.00000   ) 
                     (   0.00000   0.00000   ) 
                     (   0.00000   0.00000   ) 
                     (   0.00000   0.00000   ) 
                     (   0.00000   0.00000   ) 
                     (   0.00000   0.00000   ) 
                     (   0.00000   0.00000   ) 

     Representation     3      1 modes -  To be done
     Irreps are as follows:

                     mode #   3
                     (   0.00000   0.00000   ) 
                     (   0.00000   0.00000   ) 
                     (   1.00000   0.00000   ) 
                     (   0.00000   0.00000   ) 
                     (   0.00000   0.00000   ) 
                     (   0.00000   0.00000   ) 
                     (   0.00000   0.00000   ) 
                     (   0.00000   0.00000   ) 
                     (   0.00000   0.00000   ) 

     Representation     4      1 modes -  To be done
     Irreps are as follows:

                     mode #   4
                     (   0.00000   0.00000   ) 
                     (   0.00000   0.00000   ) 
                     (   0.00000   0.00000   ) 
                     (   1.00000   0.00000   ) 
                     (   0.00000   0.00000   ) 
                     (   0.00000   0.00000   ) 
                     (   0.00000   0.00000   ) 
                     (   0.00000   0.00000   ) 
                     (   0.00000   0.00000   ) 

     Representation     5      1 modes -  To be done
     Irreps are as follows:

                     mode #   5
                     (   0.00000   0.00000   ) 
                     (   0.00000   0.00000   ) 
                     (   0.00000   0.00000   ) 
                     (   0.00000   0.00000   ) 
                     (   1.00000   0.00000   ) 
                     (   0.00000   0.00000   ) 
                     (   0.00000   0.00000   ) 
                     (   0.00000   0.00000   ) 
                     (   0.00000   0.00000   ) 

     Representation     6      1 modes -  To be done
     Irreps are as follows:

                     mode #   6
                     (   0.00000   0.00000   ) 
                     (   0.00000   0.00000   ) 
                     (   0.00000   0.00000   ) 
                     (   0.00000   0.00000   ) 
                     (   0.00000   0.00000   ) 
                     (   1.00000   0.00000   ) 
                     (   0.00000   0.00000   ) 
                     (   0.00000   0.00000   ) 
                     (   0.00000   0.00000   ) 

     Representation     7      1 modes -  To be done
     Irreps are as follows:

                     mode #   7
                     (   0.00000   0.00000   ) 
                     (   0.00000   0.00000   ) 
                     (   0.00000   0.00000   ) 
                     (   0.00000   0.00000   ) 
                     (   0.00000   0.00000   ) 
                     (   0.00000   0.00000   ) 
                     (   1.00000   0.00000   ) 
                     (   0.00000   0.00000   ) 
                     (   0.00000   0.00000   ) 

     Representation     8      1 modes -  To be done
     Irreps are as follows:

                     mode #   8
                     (   0.00000   0.00000   ) 
                     (   0.00000   0.00000   ) 
                     (   0.00000   0.00000   ) 
                     (   0.00000   0.00000   ) 
                     (   0.00000   0.00000   ) 
                     (   0.00000   0.00000   ) 
                     (   0.00000   0.00000   ) 
                     (   1.00000   0.00000   ) 
                     (   0.00000   0.00000   ) 

     Representation     9      1 modes -  To be done
     Irreps are as follows:

                     mode #   9
                     (   0.00000   0.00000   ) 
                     (   0.00000   0.00000   ) 
                     (   0.00000   0.00000   ) 
                     (   0.00000   0.00000   ) 
                     (   0.00000   0.00000   ) 
                     (   0.00000   0.00000   ) 
                     (   0.00000   0.00000   ) 
                     (   0.00000   0.00000   ) 
                     (   1.00000   0.00000   ) 



     Alpha used in Ewald sum =   2.8000
     PHONON       :      1.45s CPU      1.66s WALL



     Representation #   1 mode #   1

     Self-consistent Calculation

      iter #   1 total cpu time :     8.2 secs   av.it.:   7.8
      thresh= 1.000E-02 alpha_mix =  0.300 |ddv_scf|^2 =  4.553E-09

      iter #   2 total cpu time :    19.3 secs   av.it.:  16.5
      thresh= 6.748E-06 alpha_mix =  0.300 |ddv_scf|^2 =  1.253E-09

      iter #   3 total cpu time :    30.8 secs   av.it.:  17.2
      thresh= 3.539E-06 alpha_mix =  0.300 |ddv_scf|^2 =  1.811E-11

      iter #   4 total cpu time :    42.4 secs   av.it.:  17.1
      thresh= 4.256E-07 alpha_mix =  0.300 |ddv_scf|^2 =  1.802E-12

      iter #   5 total cpu time :    53.4 secs   av.it.:  16.1
      thresh= 1.342E-07 alpha_mix =  0.300 |ddv_scf|^2 =  1.691E-13

      iter #   6 total cpu time :    65.4 secs   av.it.:  18.0
      thresh= 4.112E-08 alpha_mix =  0.300 |ddv_scf|^2 =  2.959E-14

      iter #   7 total cpu time :    75.6 secs   av.it.:  15.0
      thresh= 1.720E-08 alpha_mix =  0.300 |ddv_scf|^2 =  1.584E-15

      iter #   8 total cpu time :    87.2 secs   av.it.:  17.4
      thresh= 3.980E-09 alpha_mix =  0.300 |ddv_scf|^2 =  6.391E-16

     End of self-consistent calculation

     Convergence has been achieved 


     Representation #   2 mode #   2

     Self-consistent Calculation

      iter #   1 total cpu time :    93.8 secs   av.it.:   7.8
      thresh= 1.000E-02 alpha_mix =  0.300 |ddv_scf|^2 =  4.555E-09

      iter #   2 total cpu time :   104.9 secs   av.it.:  16.7
      thresh= 6.749E-06 alpha_mix =  0.300 |ddv_scf|^2 =  1.253E-09

      iter #   3 total cpu time :   116.5 secs   av.it.:  17.2
      thresh= 3.540E-06 alpha_mix =  0.300 |ddv_scf|^2 =  1.904E-11

      iter #   4 total cpu time :   127.7 secs   av.it.:  16.8
      thresh= 4.364E-07 alpha_mix =  0.300 |ddv_scf|^2 =  6.592E-12

      iter #   5 total cpu time :   138.8 secs   av.it.:  16.4
      thresh= 2.567E-07 alpha_mix =  0.300 |ddv_scf|^2 =  1.312E-12

      iter #   6 total cpu time :   149.8 secs   av.it.:  16.1
      thresh= 1.145E-07 alpha_mix =  0.300 |ddv_scf|^2 =  2.791E-13

      iter #   7 total cpu time :   161.5 secs   av.it.:  17.6
      thresh= 5.283E-08 alpha_mix =  0.300 |ddv_scf|^2 =  1.570E-13

      iter #   8 total cpu time :   171.9 secs   av.it.:  15.1
      thresh= 3.962E-08 alpha_mix =  0.300 |ddv_scf|^2 =  7.175E-16

     End of self-consistent calculation

     Convergence has been achieved 


     Representation #   3 mode #   3

     Self-consistent Calculation

      iter #   1 total cpu time :   179.4 secs   av.it.:   9.3
      thresh= 1.000E-02 alpha_mix =  0.300 |ddv_scf|^2 =  2.018E-04

      iter #   2 total cpu time :   188.8 secs   av.it.:  13.5
      thresh= 1.421E-03 alpha_mix =  0.300 |ddv_scf|^2 =  1.019E-03

      iter #   3 total cpu time :   197.1 secs   av.it.:  11.7
      thresh= 3.193E-03 alpha_mix =  0.300 |ddv_scf|^2 =  2.183E-07

      iter #   4 total cpu time :   206.1 secs   av.it.:  12.9
      thresh= 4.672E-05 alpha_mix =  0.300 |ddv_scf|^2 =  3.352E-09

      iter #   5 total cpu time :   216.2 secs   av.it.:  14.6
      thresh= 5.790E-06 alpha_mix =  0.300 |ddv_scf|^2 =  1.790E-09

      iter #   6 total cpu time :   225.6 secs   av.it.:  13.6
      thresh= 4.231E-06 alpha_mix =  0.300 |ddv_scf|^2 =  1.858E-11

      iter #   7 total cpu time :   235.2 secs   av.it.:  14.0
      thresh= 4.310E-07 alpha_mix =  0.300 |ddv_scf|^2 =  1.931E-11

      iter #   8 total cpu time :   244.1 secs   av.it.:  12.8
      thresh= 4.395E-07 alpha_mix =  0.300 |ddv_scf|^2 =  8.359E-12

      iter #   9 total cpu time :   253.7 secs   av.it.:  14.0
      thresh= 2.891E-07 alpha_mix =  0.300 |ddv_scf|^2 =  8.261E-14

      iter #  10 total cpu time :   264.2 secs   av.it.:  15.5
      thresh= 2.874E-08 alpha_mix =  0.300 |ddv_scf|^2 =  2.840E-14

      iter #  11 total cpu time :   275.0 secs   av.it.:  15.8
      thresh= 1.685E-08 alpha_mix =  0.300 |ddv_scf|^2 =  1.174E-15

      iter #  12 total cpu time :   286.0 secs   av.it.:  16.3
      thresh= 3.426E-09 alpha_mix =  0.300 |ddv_scf|^2 =  9.838E-17

     End of self-consistent calculation

     Convergence has been achieved 


     Representation #   4 mode #   4

     Self-consistent Calculation

      iter #   1 total cpu time :   293.0 secs   av.it.:   8.5
      thresh= 1.000E-02 alpha_mix =  0.300 |ddv_scf|^2 =  1.144E-08

      iter #   2 total cpu time :   305.2 secs   av.it.:  18.6
      thresh= 1.070E-05 alpha_mix =  0.300 |ddv_scf|^2 =  2.386E-09

      iter #   3 total cpu time :   318.0 secs   av.it.:  19.5
      thresh= 4.884E-06 alpha_mix =  0.300 |ddv_scf|^2 =  1.075E-11

      iter #   4 total cpu time :   330.4 secs   av.it.:  18.7
      thresh= 3.279E-07 alpha_mix =  0.300 |ddv_scf|^2 =  8.891E-13

      iter #   5 total cpu time :   342.3 secs   av.it.:  17.8
      thresh= 9.429E-08 alpha_mix =  0.300 |ddv_scf|^2 =  1.557E-12

      iter #   6 total cpu time :   352.7 secs   av.it.:  15.1
      thresh= 1.248E-07 alpha_mix =  0.300 |ddv_scf|^2 =  4.964E-14

      iter #   7 total cpu time :   365.5 secs   av.it.:  19.3
      thresh= 2.228E-08 alpha_mix =  0.300 |ddv_scf|^2 =  1.665E-15

      iter #   8 total cpu time :   377.9 secs   av.it.:  18.7
      thresh= 4.080E-09 alpha_mix =  0.300 |ddv_scf|^2 =  7.668E-16

     End of self-consistent calculation

     Convergence has been achieved 


     Representation #   5 mode #   5

     Self-consistent Calculation

      iter #   1 total cpu time :   384.9 secs   av.it.:   8.5
      thresh= 1.000E-02 alpha_mix =  0.300 |ddv_scf|^2 =  1.144E-08

      iter #   2 total cpu time :   397.3 secs   av.it.:  18.7
      thresh= 1.070E-05 alpha_mix =  0.300 |ddv_scf|^2 =  2.386E-09

      iter #   3 total cpu time :   410.1 secs   av.it.:  19.6
      thresh= 4.884E-06 alpha_mix =  0.300 |ddv_scf|^2 =  1.396E-11

      iter #   4 total cpu time :   421.6 secs   av.it.:  17.1
      thresh= 3.737E-07 alpha_mix =  0.300 |ddv_scf|^2 =  9.512E-12

      iter #   5 total cpu time :   433.6 secs   av.it.:  17.9
      thresh= 3.084E-07 alpha_mix =  0.300 |ddv_scf|^2 =  6.607E-12

      iter #   6 total cpu time :   444.7 secs   av.it.:  16.6
      thresh= 2.570E-07 alpha_mix =  0.300 |ddv_scf|^2 =  3.279E-13

      iter #   7 total cpu time :   456.4 secs   av.it.:  17.6
      thresh= 5.727E-08 alpha_mix =  0.300 |ddv_scf|^2 =  2.892E-14

      iter #   8 total cpu time :   469.1 secs   av.it.:  19.1
      thresh= 1.701E-08 alpha_mix =  0.300 |ddv_scf|^2 =  1.016E-15

      iter #   9 total cpu time :   481.9 secs   av.it.:  19.7
      thresh= 3.188E-09 alpha_mix =  0.300 |ddv_scf|^2 =  4.854E-17

     End of self-consistent calculation

     Convergence has been achieved 


     Representation #   6 mode #   6

     Self-consistent Calculation

      iter #   1 total cpu time :   490.0 secs   av.it.:  10.4
      thresh= 1.000E-02 alpha_mix =  0.300 |ddv_scf|^2 =  1.040E-04

      iter #   2 total cpu time :   500.4 secs   av.it.:  15.4
      thresh= 1.020E-03 alpha_mix =  0.300 |ddv_scf|^2 =  4.064E-04

      iter #   3 total cpu time :   509.5 secs   av.it.:  13.0
      thresh= 2.016E-03 alpha_mix =  0.300 |ddv_scf|^2 =  2.961E-06

      iter #   4 total cpu time :   519.5 secs   av.it.:  14.6
      thresh= 1.721E-04 alpha_mix =  0.300 |ddv_scf|^2 =  4.154E-07

      iter #   5 total cpu time :   529.3 secs   av.it.:  14.5
      thresh= 6.445E-05 alpha_mix =  0.300 |ddv_scf|^2 =  3.514E-09

      iter #   6 total cpu time :   539.6 secs   av.it.:  14.9
      thresh= 5.928E-06 alpha_mix =  0.300 |ddv_scf|^2 =  1.105E-10

      iter #   7 total cpu time :   550.3 secs   av.it.:  16.0
      thresh= 1.051E-06 alpha_mix =  0.300 |ddv_scf|^2 =  2.053E-11

      iter #   8 total cpu time :   560.4 secs   av.it.:  14.6
      thresh= 4.531E-07 alpha_mix =  0.300 |ddv_scf|^2 =  2.169E-12

      iter #   9 total cpu time :   570.4 secs   av.it.:  14.5
      thresh= 1.473E-07 alpha_mix =  0.300 |ddv_scf|^2 =  7.939E-13

      iter #  10 total cpu time :   580.9 secs   av.it.:  15.4
      thresh= 8.910E-08 alpha_mix =  0.300 |ddv_scf|^2 =  1.994E-14

      iter #  11 total cpu time :   592.5 secs   av.it.:  17.5
      thresh= 1.412E-08 alpha_mix =  0.300 |ddv_scf|^2 =  6.236E-16

     End of self-consistent calculation

     Convergence has been achieved 


     Representation #   7 mode #   7

     Self-consistent Calculation

      iter #   1 total cpu time :   599.5 secs   av.it.:   8.5
      thresh= 1.000E-02 alpha_mix =  0.300 |ddv_scf|^2 =  1.144E-08

      iter #   2 total cpu time :   611.8 secs   av.it.:  18.6
      thresh= 1.070E-05 alpha_mix =  0.300 |ddv_scf|^2 =  2.386E-09

      iter #   3 total cpu time :   624.6 secs   av.it.:  19.5
      thresh= 4.884E-06 alpha_mix =  0.300 |ddv_scf|^2 =  1.075E-11

      iter #   4 total cpu time :   637.1 secs   av.it.:  18.7
      thresh= 3.279E-07 alpha_mix =  0.300 |ddv_scf|^2 =  8.847E-13

      iter #   5 total cpu time :   648.9 secs   av.it.:  17.8
      thresh= 9.406E-08 alpha_mix =  0.300 |ddv_scf|^2 =  1.551E-12

      iter #   6 total cpu time :   659.3 secs   av.it.:  15.0
      thresh= 1.245E-07 alpha_mix =  0.300 |ddv_scf|^2 =  4.965E-14

      iter #   7 total cpu time :   672.0 secs   av.it.:  19.3
      thresh= 2.228E-08 alpha_mix =  0.300 |ddv_scf|^2 =  1.632E-15

      iter #   8 total cpu time :   684.5 secs   av.it.:  18.8
      thresh= 4.040E-09 alpha_mix =  0.300 |ddv_scf|^2 =  7.274E-16

     End of self-consistent calculation

     Convergence has been achieved 


     Representation #   8 mode #   8

     Self-consistent Calculation

      iter #   1 total cpu time :   691.5 secs   av.it.:   8.5
      thresh= 1.000E-02 alpha_mix =  0.300 |ddv_scf|^2 =  1.144E-08

      iter #   2 total cpu time :   703.8 secs   av.it.:  18.7
      thresh= 1.070E-05 alpha_mix =  0.300 |ddv_scf|^2 =  2.386E-09

      iter #   3 total cpu time :   716.7 secs   av.it.:  19.6
      thresh= 4.884E-06 alpha_mix =  0.300 |ddv_scf|^2 =  1.397E-11

      iter #   4 total cpu time :   728.2 secs   av.it.:  17.1
      thresh= 3.737E-07 alpha_mix =  0.300 |ddv_scf|^2 =  9.520E-12

      iter #   5 total cpu time :   740.2 secs   av.it.:  17.9
      thresh= 3.085E-07 alpha_mix =  0.300 |ddv_scf|^2 =  6.615E-12

      iter #   6 total cpu time :   751.3 secs   av.it.:  16.6
      thresh= 2.572E-07 alpha_mix =  0.300 |ddv_scf|^2 =  3.278E-13

      iter #   7 total cpu time :   763.0 secs   av.it.:  17.6
      thresh= 5.725E-08 alpha_mix =  0.300 |ddv_scf|^2 =  2.892E-14

      iter #   8 total cpu time :   775.7 secs   av.it.:  19.1
      thresh= 1.701E-08 alpha_mix =  0.300 |ddv_scf|^2 =  1.016E-15

      iter #   9 total cpu time :   788.6 secs   av.it.:  19.7
      thresh= 3.188E-09 alpha_mix =  0.300 |ddv_scf|^2 =  4.855E-17

     End of self-consistent calculation

     Convergence has been achieved 


     Representation #   9 mode #   9

     Self-consistent Calculation

      iter #   1 total cpu time :   796.7 secs   av.it.:  10.4
      thresh= 1.000E-02 alpha_mix =  0.300 |ddv_scf|^2 =  1.040E-04

      iter #   2 total cpu time :   807.2 secs   av.it.:  15.4
      thresh= 1.020E-03 alpha_mix =  0.300 |ddv_scf|^2 =  4.064E-04

      iter #   3 total cpu time :   816.3 secs   av.it.:  13.0
      thresh= 2.016E-03 alpha_mix =  0.300 |ddv_scf|^2 =  2.961E-06

      iter #   4 total cpu time :   826.3 secs   av.it.:  14.6
      thresh= 1.721E-04 alpha_mix =  0.300 |ddv_scf|^2 =  4.154E-07

      iter #   5 total cpu time :   836.2 secs   av.it.:  14.5
      thresh= 6.445E-05 alpha_mix =  0.300 |ddv_scf|^2 =  3.514E-09

      iter #   6 total cpu time :   846.5 secs   av.it.:  14.9
      thresh= 5.928E-06 alpha_mix =  0.300 |ddv_scf|^2 =  1.106E-10

      iter #   7 total cpu time :   857.3 secs   av.it.:  16.0
      thresh= 1.052E-06 alpha_mix =  0.300 |ddv_scf|^2 =  2.051E-11

      iter #   8 total cpu time :   867.3 secs   av.it.:  14.6
      thresh= 4.529E-07 alpha_mix =  0.300 |ddv_scf|^2 =  1.829E-12

      iter #   9 total cpu time :   877.8 secs   av.it.:  15.5
      thresh= 1.352E-07 alpha_mix =  0.300 |ddv_scf|^2 =  6.800E-14

      iter #  10 total cpu time :   888.0 secs   av.it.:  14.7
      thresh= 2.608E-08 alpha_mix =  0.300 |ddv_scf|^2 =  2.134E-14

      iter #  11 total cpu time :   899.5 secs   av.it.:  17.4
      thresh= 1.461E-08 alpha_mix =  0.300 |ddv_scf|^2 =  6.188E-16

     End of self-consistent calculation

     Convergence has been achieved 
 
     Number of q in the star =    1
     List of q in the star:
          1   0.000000000   0.000000000   0.000000000

     Diagonalizing the dynamical matrix

     q = (    0.000000000   0.000000000   0.000000000 ) 

 **************************************************************************
     freq (    1) =      -0.006528 [THz] =      -0.217744 [cm-1]
     freq (    2) =       0.129058 [THz] =       4.304926 [cm-1]
     freq (    3) =       0.231387 [THz] =       7.718248 [cm-1]
     freq (    4) =       8.468526 [THz] =     282.479616 [cm-1]
     freq (    5) =       8.470235 [THz] =     282.536634 [cm-1]
     freq (    6) =      11.485505 [THz] =     383.115196 [cm-1]
     freq (    7) =      11.487930 [THz] =     383.196086 [cm-1]
     freq (    8) =      12.083507 [THz] =     403.062423 [cm-1]
     freq (    9) =      13.898127 [THz] =     463.591614 [cm-1]
 **************************************************************************

     Mode symmetry, C_1 (1)     point group:

     freq (   1-   1) =         -0.2  [cm-1]   --> A               I+R
     freq (   2-   2) =          4.3  [cm-1]   --> A               I+R
     freq (   3-   3) =          7.7  [cm-1]   --> A               I+R
     freq (   4-   4) =        282.5  [cm-1]   --> A               I+R
     freq (   5-   5) =        282.5  [cm-1]   --> A               I+R
     freq (   6-   6) =        383.1  [cm-1]   --> A               I+R
     freq (   7-   7) =        383.2  [cm-1]   --> A               I+R
     freq (   8-   8) =        403.1  [cm-1]   --> A               I+R
     freq (   9-   9) =        463.6  [cm-1]   --> A               I+R
 
     PHONON       :  14m44.07s CPU  14m59.69s WALL

     INITIALIZATION: 
     phq_setup    :      0.00s CPU      0.00s WALL (       1 calls)
     phq_init     :      0.27s CPU      0.28s WALL (       1 calls)
 
     phq_init     :      0.27s CPU      0.28s WALL (       1 calls)
     init_vloc    :      0.01s CPU      0.01s WALL (       1 calls)
     init_us_1    :      0.00s CPU      0.00s WALL (       1 calls)
     init_us_2    :      2.87s CPU      3.07s WALL (   14976 calls)
 
     DYNAMICAL MATRIX:
     dynmat0      :      0.17s CPU      0.18s WALL (       1 calls)
     dynmat_us    :      0.17s CPU      0.17s WALL (       1 calls)
     d2ionq       :      0.00s CPU      0.00s WALL (       1 calls)
     phqscf       :    882.62s CPU    898.00s WALL (       1 calls)
     dynmatrix    :      0.00s CPU      0.00s WALL (       1 calls)
 
     phqscf       :    882.62s CPU    898.00s WALL (       1 calls)
     solve_linter :    881.76s CPU    897.08s WALL (       9 calls)
     dfpt_kernel  :    872.66s CPU    887.64s WALL (       9 calls)
     sth_kernel   :    872.40s CPU    887.17s WALL (      84 calls)
     h_prec       :      0.83s CPU      0.88s WALL (   12096 calls)
     apply_dpot_b :     40.82s CPU     42.39s WALL (   10800 calls)
     ortho        :      1.34s CPU      1.38s WALL (   12096 calls)
     cgsolve      :    777.24s CPU    788.11s WALL (   12096 calls)
     incdrhoscf   :     45.53s CPU     47.13s WALL (   12096 calls)
                                        0.00s GPU  (   12096 calls)
     dv_of_drho   :      0.09s CPU      0.10s WALL (      84 calls)
     mix_pot      :      0.12s CPU      0.27s WALL (      84 calls)
     drhodv       :      0.86s CPU      0.91s WALL (       9 calls)
     com_dvloc    :      0.47s CPU      0.54s WALL (    1377 calls)
                                        0.00s GPU  (    1377 calls)
     addcore      :      0.00s CPU      0.00s WALL (       9 calls)
                                        0.00s GPU  (       9 calls)
 
     dvqpsi_us    :      8.69s CPU      8.92s WALL (    1296 calls)
                                        0.00s GPU  (    1296 calls)
     dvqpsi_us_on :      0.42s CPU      0.43s WALL (    1296 calls)
 
     add_vuspsi   :      8.41s CPU      8.54s WALL (  259294 calls)
 
 
      General routines
     calbec       :     23.34s CPU     23.70s WALL (  265918 calls)
     fft          :      0.07s CPU      0.08s WALL (     256 calls)
     ffts         :      0.39s CPU      0.45s WALL (    1377 calls)
     fftw         :    719.78s CPU    731.25s WALL ( 3966040 calls)
     davcio       :      3.64s CPU      4.28s WALL (   52269 calls)
     write_rec    :      0.03s CPU      0.07s WALL (      93 calls)
 
      Additional routines
     ch_psi       :    753.12s CPU    763.47s WALL (  259294 calls)
     last         :     23.10s CPU     23.48s WALL (  259294 calls)
     Hesh         :      2.67s CPU      2.72s WALL (  259294 calls)
     ch_psi_all_k :     19.54s CPU     19.88s WALL (  259294 calls)
                                        0.00s GPU  (  259294 calls)
     h_psi_bgrp   :    724.39s CPU    734.25s WALL (  259294 calls)
     h_psi        :    723.88s CPU    733.74s WALL (  259294 calls)
     h_psi:pot    :    722.13s CPU    731.94s WALL (  259294 calls)
     h_psi:calbec :     23.33s CPU     23.62s WALL (  259294 calls)
     s_psi_bgrp   :      2.93s CPU      2.96s WALL (  530684 calls)
 
 
     PHONON       :  14m44.07s CPU  14m59.69s WALL

 
   This run was terminated on:   0:21:20   2Feb2026            

=------------------------------------------------------------------------------=
   JOB DONE.
=------------------------------------------------------------------------------=
