
     Program PHONON v.7.5 starts on  2Feb2026 at  0:34:18 

     This program is part of the open-source Quantum ESPRESSO suite
     for quantum simulation of materials; please cite
         "P. Giannozzi et al., J. Phys.:Condens. Matter 21 395502 (2009);
         "P. Giannozzi et al., J. Phys.:Condens. Matter 29 465901 (2017);
         "P. Giannozzi et al., J. Chem. Phys. 152 154105 (2020);
          URL http://www.quantum-espresso.org", 
     in publications or presentations arising from this work. More details at
     http://www.quantum-espresso.org/quote

     Parallel version (MPI), running on    48 processors

     MPI processes distributed on     1 nodes
     294916 MiB available memory on the printing compute node when the environment starts
 
     Waiting for input...
     Reading input from standard input

     Reading xml data from directory:

     ./tmp/mos2.save/
 
     R & G space division:  proc/nbgrp/npool/nimage =      48
     Subspace diagonalization in iterative solution of the eigenvalue problem:
     a serial algorithm will be used


     IMPORTANT: XC functional enforced from input :
     Exchange-correlation= PZ
                           (   1   1   0   0   0   0   0)
     Any further DFT definition will be discarded
     Please, verify this is what you really want

 
     Parallelization info
     --------------------
     sticks:   dense  smooth     PW     G-vecs:    dense   smooth      PW
     Min          24      24      7                 5318     5318     861
     Max          25      25      8                 5359     5359     896
     Sum        1159    1159    349               255923   255923   42169
 
     Using Slab Decomposition
 
 ----2D----2D----2D----2D----2D----2D----2D----2D----2D----2D----2D----2D
  The code is running with the 2D cutoff
  Please refer to:
  Sohier, T., Calandra, M., & Mauri, F. (2017), 
  Density functional perturbation theory for gated two-dimensional heterostructu
 res:
  Theoretical developments and application to flexural phonons in graphene.
  Physical Review B, 96(7), 75448. https://doi.org/10.1103/PhysRevB.96.075448
 ----2D----2D----2D----2D----2D----2D----2D----2D----2D----2D----2D----2D
     Reading collected, re-writing distributed wavefunctions in ./tmp/

     Saving dvscf to file. Distribute only q points, not irreducible representations.

     Calculation of q =    0.0000000   0.0000000   0.0000000

     phonons                                                                    

     bravais-lattice index     =            4
     lattice parameter (alat)  =       5.9330  a.u.
     unit-cell volume          =    1440.1845 (a.u.)^3
     number of atoms/cell      =            3
     number of atomic types    =            2
     kinetic-energy cut-off    =     120.0000  Ry
     charge density cut-off    =     480.0000  Ry
     convergence threshold     =      1.0E-15
     beta                      =       0.3000
     number of iterations used =           20
     Exchange-correlation= PZ
                           (   1   1   0   0   0   0   0)


     celldm(1)=    5.93300  celldm(2)=    0.00000  celldm(3)=    7.96278
     celldm(4)=    0.00000  celldm(5)=    0.00000  celldm(6)=    0.00000

     crystal axes: (cart. coord. in units of alat)
               a(1) = (  1.0000  0.0000  0.0000 )  
               a(2) = ( -0.5000  0.8660  0.0000 )  
               a(3) = (  0.0000  0.0000  7.9628 )  

     reciprocal axes: (cart. coord. in units 2 pi/alat)
               b(1) = (  1.0000  0.5774  0.0000 )  
               b(2) = (  0.0000  1.1547  0.0000 )  
               b(3) = (  0.0000  0.0000  0.1256 )  


     Atoms inside the unit cell: 

     Cartesian axes

     site n.  atom      mass           positions (alat units)
        1  Mo     95.9420   tau(    1) = (   -0.00000    0.57735    3.98139  )
        2  S      32.0650   tau(    2) = (    0.50000    0.28868    4.47888  )
        3  S      32.0650   tau(    3) = (    0.50000    0.28868    3.48390  )

     Computing dynamical matrix for 
                    q = (   0.0000000   0.0000000   0.0000000 )
 
     No symmetry!
                                    s                        frac. trans.

      isym =  1     identity                                     

 cryst.   s( 1) = (     1          0          0      )
                  (     0          1          0      )
                  (     0          0          1      )

 cart.    s( 1) = (  1.0000000  0.0000000  0.0000000 )
                  (  0.0000000  1.0000000  0.0000000 )
                  (  0.0000000  0.0000000  1.0000000 )


     G cutoff =  427.9865  (   5328 G-vectors)     FFT grid: ( 45, 45,360)
     number of k points=  2304
                       cart. coord. in units 2pi/alat
        k(    1) = (   0.0000000   0.0000000   0.0000000), wk =   0.0008681
        k(    2) = (   0.0000000   0.0240563   0.0000000), wk =   0.0008681
        k(    3) = (   0.0000000   0.0481125   0.0000000), wk =   0.0008681
        k(    4) = (   0.0000000   0.0721688   0.0000000), wk =   0.0008681
        k(    5) = (   0.0000000   0.0962250   0.0000000), wk =   0.0008681
        k(    6) = (   0.0000000   0.1202813   0.0000000), wk =   0.0008681
        k(    7) = (   0.0000000   0.1443376   0.0000000), wk =   0.0008681
        k(    8) = (   0.0000000   0.1683938   0.0000000), wk =   0.0008681
        k(    9) = (   0.0000000   0.1924501   0.0000000), wk =   0.0008681
        k(   10) = (   0.0000000   0.2165064   0.0000000), wk =   0.0008681
        k(   11) = (   0.0000000   0.2405626   0.0000000), wk =   0.0008681
        k(   12) = (   0.0000000   0.2646189   0.0000000), wk =   0.0008681
        k(   13) = (   0.0000000   0.2886751   0.0000000), wk =   0.0008681
        k(   14) = (   0.0000000   0.3127314   0.0000000), wk =   0.0008681
        k(   15) = (   0.0000000   0.3367877   0.0000000), wk =   0.0008681
        k(   16) = (   0.0000000   0.3608439   0.0000000), wk =   0.0008681
        k(   17) = (   0.0000000   0.3849002   0.0000000), wk =   0.0008681
        k(   18) = (   0.0000000   0.4089564   0.0000000), wk =   0.0008681
        k(   19) = (   0.0000000   0.4330127   0.0000000), wk =   0.0008681
        k(   20) = (   0.0000000   0.4570690   0.0000000), wk =   0.0008681
        k(   21) = (   0.0000000   0.4811252   0.0000000), wk =   0.0008681
        k(   22) = (   0.0000000   0.5051815   0.0000000), wk =   0.0008681
        k(   23) = (   0.0000000   0.5292377   0.0000000), wk =   0.0008681
        k(   24) = (   0.0000000   0.5532940   0.0000000), wk =   0.0008681
        k(   25) = (   0.0000000  -0.5773503   0.0000000), wk =   0.0008681
        k(   26) = (   0.0000000  -0.5532940   0.0000000), wk =   0.0008681
        k(   27) = (   0.0000000  -0.5292377   0.0000000), wk =   0.0008681
        k(   28) = (   0.0000000  -0.5051815   0.0000000), wk =   0.0008681
        k(   29) = (   0.0000000  -0.4811252   0.0000000), wk =   0.0008681
        k(   30) = (   0.0000000  -0.4570690   0.0000000), wk =   0.0008681
        k(   31) = (   0.0000000  -0.4330127   0.0000000), wk =   0.0008681
        k(   32) = (   0.0000000  -0.4089564   0.0000000), wk =   0.0008681
        k(   33) = (   0.0000000  -0.3849002   0.0000000), wk =   0.0008681
        k(   34) = (   0.0000000  -0.3608439   0.0000000), wk =   0.0008681
        k(   35) = (   0.0000000  -0.3367877   0.0000000), wk =   0.0008681
        k(   36) = (   0.0000000  -0.3127314   0.0000000), wk =   0.0008681
        k(   37) = (   0.0000000  -0.2886751   0.0000000), wk =   0.0008681
        k(   38) = (   0.0000000  -0.2646189   0.0000000), wk =   0.0008681
        k(   39) = (   0.0000000  -0.2405626   0.0000000), wk =   0.0008681
        k(   40) = (   0.0000000  -0.2165064   0.0000000), wk =   0.0008681
        k(   41) = (   0.0000000  -0.1924501   0.0000000), wk =   0.0008681
        k(   42) = (   0.0000000  -0.1683938   0.0000000), wk =   0.0008681
        k(   43) = (   0.0000000  -0.1443376   0.0000000), wk =   0.0008681
        k(   44) = (   0.0000000  -0.1202813   0.0000000), wk =   0.0008681
        k(   45) = (   0.0000000  -0.0962250   0.0000000), wk =   0.0008681
        k(   46) = (   0.0000000  -0.0721688   0.0000000), wk =   0.0008681
        k(   47) = (   0.0000000  -0.0481125   0.0000000), wk =   0.0008681
        k(   48) = (   0.0000000  -0.0240563   0.0000000), wk =   0.0008681
        k(   49) = (   0.0208333   0.0120281   0.0000000), wk =   0.0008681
        k(   50) = (   0.0208333   0.0360844   0.0000000), wk =   0.0008681
        k(   51) = (   0.0208333   0.0601407   0.0000000), wk =   0.0008681
        k(   52) = (   0.0208333   0.0841969   0.0000000), wk =   0.0008681
        k(   53) = (   0.0208333   0.1082532   0.0000000), wk =   0.0008681
        k(   54) = (   0.0208333   0.1323094   0.0000000), wk =   0.0008681
        k(   55) = (   0.0208333   0.1563657   0.0000000), wk =   0.0008681
        k(   56) = (   0.0208333   0.1804220   0.0000000), wk =   0.0008681
        k(   57) = (   0.0208333   0.2044782   0.0000000), wk =   0.0008681
        k(   58) = (   0.0208333   0.2285345   0.0000000), wk =   0.0008681
        k(   59) = (   0.0208333   0.2525907   0.0000000), wk =   0.0008681
        k(   60) = (   0.0208333   0.2766470   0.0000000), wk =   0.0008681
        k(   61) = (   0.0208333   0.3007033   0.0000000), wk =   0.0008681
        k(   62) = (   0.0208333   0.3247595   0.0000000), wk =   0.0008681
        k(   63) = (   0.0208333   0.3488158   0.0000000), wk =   0.0008681
        k(   64) = (   0.0208333   0.3728720   0.0000000), wk =   0.0008681
        k(   65) = (   0.0208333   0.3969283   0.0000000), wk =   0.0008681
        k(   66) = (   0.0208333   0.4209846   0.0000000), wk =   0.0008681
        k(   67) = (   0.0208333   0.4450408   0.0000000), wk =   0.0008681
        k(   68) = (   0.0208333   0.4690971   0.0000000), wk =   0.0008681
        k(   69) = (   0.0208333   0.4931534   0.0000000), wk =   0.0008681
        k(   70) = (   0.0208333   0.5172096   0.0000000), wk =   0.0008681
        k(   71) = (   0.0208333   0.5412659   0.0000000), wk =   0.0008681
        k(   72) = (   0.0208333   0.5653221   0.0000000), wk =   0.0008681
        k(   73) = (   0.0208333  -0.5653221   0.0000000), wk =   0.0008681
        k(   74) = (   0.0208333  -0.5412659   0.0000000), wk =   0.0008681
        k(   75) = (   0.0208333  -0.5172096   0.0000000), wk =   0.0008681
        k(   76) = (   0.0208333  -0.4931534   0.0000000), wk =   0.0008681
        k(   77) = (   0.0208333  -0.4690971   0.0000000), wk =   0.0008681
        k(   78) = (   0.0208333  -0.4450408   0.0000000), wk =   0.0008681
        k(   79) = (   0.0208333  -0.4209846   0.0000000), wk =   0.0008681
        k(   80) = (   0.0208333  -0.3969283   0.0000000), wk =   0.0008681
        k(   81) = (   0.0208333  -0.3728720   0.0000000), wk =   0.0008681
        k(   82) = (   0.0208333  -0.3488158   0.0000000), wk =   0.0008681
        k(   83) = (   0.0208333  -0.3247595   0.0000000), wk =   0.0008681
        k(   84) = (   0.0208333  -0.3007033   0.0000000), wk =   0.0008681
        k(   85) = (   0.0208333  -0.2766470   0.0000000), wk =   0.0008681
        k(   86) = (   0.0208333  -0.2525907   0.0000000), wk =   0.0008681
        k(   87) = (   0.0208333  -0.2285345   0.0000000), wk =   0.0008681
        k(   88) = (   0.0208333  -0.2044782   0.0000000), wk =   0.0008681
        k(   89) = (   0.0208333  -0.1804220   0.0000000), wk =   0.0008681
        k(   90) = (   0.0208333  -0.1563657   0.0000000), wk =   0.0008681
        k(   91) = (   0.0208333  -0.1323094   0.0000000), wk =   0.0008681
        k(   92) = (   0.0208333  -0.1082532   0.0000000), wk =   0.0008681
        k(   93) = (   0.0208333  -0.0841969   0.0000000), wk =   0.0008681
        k(   94) = (   0.0208333  -0.0601407   0.0000000), wk =   0.0008681
        k(   95) = (   0.0208333  -0.0360844   0.0000000), wk =   0.0008681
        k(   96) = (   0.0208333  -0.0120281   0.0000000), wk =   0.0008681
        k(   97) = (   0.0416667   0.0240563   0.0000000), wk =   0.0008681
        k(   98) = (   0.0416667   0.0481125   0.0000000), wk =   0.0008681
        k(   99) = (   0.0416667   0.0721688   0.0000000), wk =   0.0008681
        k(  100) = (   0.0416667   0.0962250   0.0000000), wk =   0.0008681
        k(  101) = (   0.0416667   0.1202813   0.0000000), wk =   0.0008681
        k(  102) = (   0.0416667   0.1443376   0.0000000), wk =   0.0008681
        k(  103) = (   0.0416667   0.1683938   0.0000000), wk =   0.0008681
        k(  104) = (   0.0416667   0.1924501   0.0000000), wk =   0.0008681
        k(  105) = (   0.0416667   0.2165064   0.0000000), wk =   0.0008681
        k(  106) = (   0.0416667   0.2405626   0.0000000), wk =   0.0008681
        k(  107) = (   0.0416667   0.2646189   0.0000000), wk =   0.0008681
        k(  108) = (   0.0416667   0.2886751   0.0000000), wk =   0.0008681
        k(  109) = (   0.0416667   0.3127314   0.0000000), wk =   0.0008681
        k(  110) = (   0.0416667   0.3367877   0.0000000), wk =   0.0008681
        k(  111) = (   0.0416667   0.3608439   0.0000000), wk =   0.0008681
        k(  112) = (   0.0416667   0.3849002   0.0000000), wk =   0.0008681
        k(  113) = (   0.0416667   0.4089564   0.0000000), wk =   0.0008681
        k(  114) = (   0.0416667   0.4330127   0.0000000), wk =   0.0008681
        k(  115) = (   0.0416667   0.4570690   0.0000000), wk =   0.0008681
        k(  116) = (   0.0416667   0.4811252   0.0000000), wk =   0.0008681
        k(  117) = (   0.0416667   0.5051815   0.0000000), wk =   0.0008681
        k(  118) = (   0.0416667   0.5292377   0.0000000), wk =   0.0008681
        k(  119) = (   0.0416667   0.5532940   0.0000000), wk =   0.0008681
        k(  120) = (   0.0416667   0.5773503   0.0000000), wk =   0.0008681
        k(  121) = (   0.0416667  -0.5532940   0.0000000), wk =   0.0008681
        k(  122) = (   0.0416667  -0.5292377   0.0000000), wk =   0.0008681
        k(  123) = (   0.0416667  -0.5051815   0.0000000), wk =   0.0008681
        k(  124) = (   0.0416667  -0.4811252   0.0000000), wk =   0.0008681
        k(  125) = (   0.0416667  -0.4570690   0.0000000), wk =   0.0008681
        k(  126) = (   0.0416667  -0.4330127   0.0000000), wk =   0.0008681
        k(  127) = (   0.0416667  -0.4089564   0.0000000), wk =   0.0008681
        k(  128) = (   0.0416667  -0.3849002   0.0000000), wk =   0.0008681
        k(  129) = (   0.0416667  -0.3608439   0.0000000), wk =   0.0008681
        k(  130) = (   0.0416667  -0.3367877   0.0000000), wk =   0.0008681
        k(  131) = (   0.0416667  -0.3127314   0.0000000), wk =   0.0008681
        k(  132) = (   0.0416667  -0.2886751   0.0000000), wk =   0.0008681
        k(  133) = (   0.0416667  -0.2646189   0.0000000), wk =   0.0008681
        k(  134) = (   0.0416667  -0.2405626   0.0000000), wk =   0.0008681
        k(  135) = (   0.0416667  -0.2165064   0.0000000), wk =   0.0008681
        k(  136) = (   0.0416667  -0.1924501   0.0000000), wk =   0.0008681
        k(  137) = (   0.0416667  -0.1683938   0.0000000), wk =   0.0008681
        k(  138) = (   0.0416667  -0.1443376   0.0000000), wk =   0.0008681
        k(  139) = (   0.0416667  -0.1202813   0.0000000), wk =   0.0008681
        k(  140) = (   0.0416667  -0.0962250   0.0000000), wk =   0.0008681
        k(  141) = (   0.0416667  -0.0721688   0.0000000), wk =   0.0008681
        k(  142) = (   0.0416667  -0.0481125   0.0000000), wk =   0.0008681
        k(  143) = (   0.0416667  -0.0240563   0.0000000), wk =   0.0008681
        k(  144) = (   0.0416667  -0.0000000   0.0000000), wk =   0.0008681
        k(  145) = (   0.0625000   0.0360844   0.0000000), wk =   0.0008681
        k(  146) = (   0.0625000   0.0601407   0.0000000), wk =   0.0008681
        k(  147) = (   0.0625000   0.0841969   0.0000000), wk =   0.0008681
        k(  148) = (   0.0625000   0.1082532   0.0000000), wk =   0.0008681
        k(  149) = (   0.0625000   0.1323094   0.0000000), wk =   0.0008681
        k(  150) = (   0.0625000   0.1563657   0.0000000), wk =   0.0008681
        k(  151) = (   0.0625000   0.1804220   0.0000000), wk =   0.0008681
        k(  152) = (   0.0625000   0.2044782   0.0000000), wk =   0.0008681
        k(  153) = (   0.0625000   0.2285345   0.0000000), wk =   0.0008681
        k(  154) = (   0.0625000   0.2525907   0.0000000), wk =   0.0008681
        k(  155) = (   0.0625000   0.2766470   0.0000000), wk =   0.0008681
        k(  156) = (   0.0625000   0.3007033   0.0000000), wk =   0.0008681
        k(  157) = (   0.0625000   0.3247595   0.0000000), wk =   0.0008681
        k(  158) = (   0.0625000   0.3488158   0.0000000), wk =   0.0008681
        k(  159) = (   0.0625000   0.3728720   0.0000000), wk =   0.0008681
        k(  160) = (   0.0625000   0.3969283   0.0000000), wk =   0.0008681
        k(  161) = (   0.0625000   0.4209846   0.0000000), wk =   0.0008681
        k(  162) = (   0.0625000   0.4450408   0.0000000), wk =   0.0008681
        k(  163) = (   0.0625000   0.4690971   0.0000000), wk =   0.0008681
        k(  164) = (   0.0625000   0.4931534   0.0000000), wk =   0.0008681
        k(  165) = (   0.0625000   0.5172096   0.0000000), wk =   0.0008681
        k(  166) = (   0.0625000   0.5412659   0.0000000), wk =   0.0008681
        k(  167) = (   0.0625000   0.5653221   0.0000000), wk =   0.0008681
        k(  168) = (   0.0625000   0.5893784   0.0000000), wk =   0.0008681
        k(  169) = (   0.0625000  -0.5412659   0.0000000), wk =   0.0008681
        k(  170) = (   0.0625000  -0.5172096   0.0000000), wk =   0.0008681
        k(  171) = (   0.0625000  -0.4931534   0.0000000), wk =   0.0008681
        k(  172) = (   0.0625000  -0.4690971   0.0000000), wk =   0.0008681
        k(  173) = (   0.0625000  -0.4450408   0.0000000), wk =   0.0008681
        k(  174) = (   0.0625000  -0.4209846   0.0000000), wk =   0.0008681
        k(  175) = (   0.0625000  -0.3969283   0.0000000), wk =   0.0008681
        k(  176) = (   0.0625000  -0.3728720   0.0000000), wk =   0.0008681
        k(  177) = (   0.0625000  -0.3488158   0.0000000), wk =   0.0008681
        k(  178) = (   0.0625000  -0.3247595   0.0000000), wk =   0.0008681
        k(  179) = (   0.0625000  -0.3007033   0.0000000), wk =   0.0008681
        k(  180) = (   0.0625000  -0.2766470   0.0000000), wk =   0.0008681
        k(  181) = (   0.0625000  -0.2525907   0.0000000), wk =   0.0008681
        k(  182) = (   0.0625000  -0.2285345   0.0000000), wk =   0.0008681
        k(  183) = (   0.0625000  -0.2044782   0.0000000), wk =   0.0008681
        k(  184) = (   0.0625000  -0.1804220   0.0000000), wk =   0.0008681
        k(  185) = (   0.0625000  -0.1563657   0.0000000), wk =   0.0008681
        k(  186) = (   0.0625000  -0.1323094   0.0000000), wk =   0.0008681
        k(  187) = (   0.0625000  -0.1082532   0.0000000), wk =   0.0008681
        k(  188) = (   0.0625000  -0.0841969   0.0000000), wk =   0.0008681
        k(  189) = (   0.0625000  -0.0601407   0.0000000), wk =   0.0008681
        k(  190) = (   0.0625000  -0.0360844   0.0000000), wk =   0.0008681
        k(  191) = (   0.0625000  -0.0120281   0.0000000), wk =   0.0008681
        k(  192) = (   0.0625000   0.0120281   0.0000000), wk =   0.0008681
        k(  193) = (   0.0833333   0.0481125   0.0000000), wk =   0.0008681
        k(  194) = (   0.0833333   0.0721688   0.0000000), wk =   0.0008681
        k(  195) = (   0.0833333   0.0962250   0.0000000), wk =   0.0008681
        k(  196) = (   0.0833333   0.1202813   0.0000000), wk =   0.0008681
        k(  197) = (   0.0833333   0.1443376   0.0000000), wk =   0.0008681
        k(  198) = (   0.0833333   0.1683938   0.0000000), wk =   0.0008681
        k(  199) = (   0.0833333   0.1924501   0.0000000), wk =   0.0008681
        k(  200) = (   0.0833333   0.2165064   0.0000000), wk =   0.0008681
        k(  201) = (   0.0833333   0.2405626   0.0000000), wk =   0.0008681
        k(  202) = (   0.0833333   0.2646189   0.0000000), wk =   0.0008681
        k(  203) = (   0.0833333   0.2886751   0.0000000), wk =   0.0008681
        k(  204) = (   0.0833333   0.3127314   0.0000000), wk =   0.0008681
        k(  205) = (   0.0833333   0.3367877   0.0000000), wk =   0.0008681
        k(  206) = (   0.0833333   0.3608439   0.0000000), wk =   0.0008681
        k(  207) = (   0.0833333   0.3849002   0.0000000), wk =   0.0008681
        k(  208) = (   0.0833333   0.4089564   0.0000000), wk =   0.0008681
        k(  209) = (   0.0833333   0.4330127   0.0000000), wk =   0.0008681
        k(  210) = (   0.0833333   0.4570690   0.0000000), wk =   0.0008681
        k(  211) = (   0.0833333   0.4811252   0.0000000), wk =   0.0008681
        k(  212) = (   0.0833333   0.5051815   0.0000000), wk =   0.0008681
        k(  213) = (   0.0833333   0.5292377   0.0000000), wk =   0.0008681
        k(  214) = (   0.0833333   0.5532940   0.0000000), wk =   0.0008681
        k(  215) = (   0.0833333   0.5773503   0.0000000), wk =   0.0008681
        k(  216) = (   0.0833333   0.6014065   0.0000000), wk =   0.0008681
        k(  217) = (   0.0833333  -0.5292377   0.0000000), wk =   0.0008681
        k(  218) = (   0.0833333  -0.5051815   0.0000000), wk =   0.0008681
        k(  219) = (   0.0833333  -0.4811252   0.0000000), wk =   0.0008681
        k(  220) = (   0.0833333  -0.4570690   0.0000000), wk =   0.0008681
        k(  221) = (   0.0833333  -0.4330127   0.0000000), wk =   0.0008681
        k(  222) = (   0.0833333  -0.4089564   0.0000000), wk =   0.0008681
        k(  223) = (   0.0833333  -0.3849002   0.0000000), wk =   0.0008681
        k(  224) = (   0.0833333  -0.3608439   0.0000000), wk =   0.0008681
        k(  225) = (   0.0833333  -0.3367877   0.0000000), wk =   0.0008681
        k(  226) = (   0.0833333  -0.3127314   0.0000000), wk =   0.0008681
        k(  227) = (   0.0833333  -0.2886751   0.0000000), wk =   0.0008681
        k(  228) = (   0.0833333  -0.2646189   0.0000000), wk =   0.0008681
        k(  229) = (   0.0833333  -0.2405626   0.0000000), wk =   0.0008681
        k(  230) = (   0.0833333  -0.2165064   0.0000000), wk =   0.0008681
        k(  231) = (   0.0833333  -0.1924501   0.0000000), wk =   0.0008681
        k(  232) = (   0.0833333  -0.1683938   0.0000000), wk =   0.0008681
        k(  233) = (   0.0833333  -0.1443376   0.0000000), wk =   0.0008681
        k(  234) = (   0.0833333  -0.1202813   0.0000000), wk =   0.0008681
        k(  235) = (   0.0833333  -0.0962250   0.0000000), wk =   0.0008681
        k(  236) = (   0.0833333  -0.0721688   0.0000000), wk =   0.0008681
        k(  237) = (   0.0833333  -0.0481125   0.0000000), wk =   0.0008681
        k(  238) = (   0.0833333  -0.0240563   0.0000000), wk =   0.0008681
        k(  239) = (   0.0833333  -0.0000000   0.0000000), wk =   0.0008681
        k(  240) = (   0.0833333   0.0240563   0.0000000), wk =   0.0008681
        k(  241) = (   0.1041667   0.0601407   0.0000000), wk =   0.0008681
        k(  242) = (   0.1041667   0.0841969   0.0000000), wk =   0.0008681
        k(  243) = (   0.1041667   0.1082532   0.0000000), wk =   0.0008681
        k(  244) = (   0.1041667   0.1323094   0.0000000), wk =   0.0008681
        k(  245) = (   0.1041667   0.1563657   0.0000000), wk =   0.0008681
        k(  246) = (   0.1041667   0.1804220   0.0000000), wk =   0.0008681
        k(  247) = (   0.1041667   0.2044782   0.0000000), wk =   0.0008681
        k(  248) = (   0.1041667   0.2285345   0.0000000), wk =   0.0008681
        k(  249) = (   0.1041667   0.2525907   0.0000000), wk =   0.0008681
        k(  250) = (   0.1041667   0.2766470   0.0000000), wk =   0.0008681
        k(  251) = (   0.1041667   0.3007033   0.0000000), wk =   0.0008681
        k(  252) = (   0.1041667   0.3247595   0.0000000), wk =   0.0008681
        k(  253) = (   0.1041667   0.3488158   0.0000000), wk =   0.0008681
        k(  254) = (   0.1041667   0.3728720   0.0000000), wk =   0.0008681
        k(  255) = (   0.1041667   0.3969283   0.0000000), wk =   0.0008681
        k(  256) = (   0.1041667   0.4209846   0.0000000), wk =   0.0008681
        k(  257) = (   0.1041667   0.4450408   0.0000000), wk =   0.0008681
        k(  258) = (   0.1041667   0.4690971   0.0000000), wk =   0.0008681
        k(  259) = (   0.1041667   0.4931534   0.0000000), wk =   0.0008681
        k(  260) = (   0.1041667   0.5172096   0.0000000), wk =   0.0008681
        k(  261) = (   0.1041667   0.5412659   0.0000000), wk =   0.0008681
        k(  262) = (   0.1041667   0.5653221   0.0000000), wk =   0.0008681
        k(  263) = (   0.1041667   0.5893784   0.0000000), wk =   0.0008681
        k(  264) = (   0.1041667   0.6134347   0.0000000), wk =   0.0008681
        k(  265) = (   0.1041667  -0.5172096   0.0000000), wk =   0.0008681
        k(  266) = (   0.1041667  -0.4931534   0.0000000), wk =   0.0008681
        k(  267) = (   0.1041667  -0.4690971   0.0000000), wk =   0.0008681
        k(  268) = (   0.1041667  -0.4450408   0.0000000), wk =   0.0008681
        k(  269) = (   0.1041667  -0.4209846   0.0000000), wk =   0.0008681
        k(  270) = (   0.1041667  -0.3969283   0.0000000), wk =   0.0008681
        k(  271) = (   0.1041667  -0.3728720   0.0000000), wk =   0.0008681
        k(  272) = (   0.1041667  -0.3488158   0.0000000), wk =   0.0008681
        k(  273) = (   0.1041667  -0.3247595   0.0000000), wk =   0.0008681
        k(  274) = (   0.1041667  -0.3007033   0.0000000), wk =   0.0008681
        k(  275) = (   0.1041667  -0.2766470   0.0000000), wk =   0.0008681
        k(  276) = (   0.1041667  -0.2525907   0.0000000), wk =   0.0008681
        k(  277) = (   0.1041667  -0.2285345   0.0000000), wk =   0.0008681
        k(  278) = (   0.1041667  -0.2044782   0.0000000), wk =   0.0008681
        k(  279) = (   0.1041667  -0.1804220   0.0000000), wk =   0.0008681
        k(  280) = (   0.1041667  -0.1563657   0.0000000), wk =   0.0008681
        k(  281) = (   0.1041667  -0.1323094   0.0000000), wk =   0.0008681
        k(  282) = (   0.1041667  -0.1082532   0.0000000), wk =   0.0008681
        k(  283) = (   0.1041667  -0.0841969   0.0000000), wk =   0.0008681
        k(  284) = (   0.1041667  -0.0601407   0.0000000), wk =   0.0008681
        k(  285) = (   0.1041667  -0.0360844   0.0000000), wk =   0.0008681
        k(  286) = (   0.1041667  -0.0120281   0.0000000), wk =   0.0008681
        k(  287) = (   0.1041667   0.0120281   0.0000000), wk =   0.0008681
        k(  288) = (   0.1041667   0.0360844   0.0000000), wk =   0.0008681
        k(  289) = (   0.1250000   0.0721688   0.0000000), wk =   0.0008681
        k(  290) = (   0.1250000   0.0962250   0.0000000), wk =   0.0008681
        k(  291) = (   0.1250000   0.1202813   0.0000000), wk =   0.0008681
        k(  292) = (   0.1250000   0.1443376   0.0000000), wk =   0.0008681
        k(  293) = (   0.1250000   0.1683938   0.0000000), wk =   0.0008681
        k(  294) = (   0.1250000   0.1924501   0.0000000), wk =   0.0008681
        k(  295) = (   0.1250000   0.2165064   0.0000000), wk =   0.0008681
        k(  296) = (   0.1250000   0.2405626   0.0000000), wk =   0.0008681
        k(  297) = (   0.1250000   0.2646189   0.0000000), wk =   0.0008681
        k(  298) = (   0.1250000   0.2886751   0.0000000), wk =   0.0008681
        k(  299) = (   0.1250000   0.3127314   0.0000000), wk =   0.0008681
        k(  300) = (   0.1250000   0.3367877   0.0000000), wk =   0.0008681
        k(  301) = (   0.1250000   0.3608439   0.0000000), wk =   0.0008681
        k(  302) = (   0.1250000   0.3849002   0.0000000), wk =   0.0008681
        k(  303) = (   0.1250000   0.4089564   0.0000000), wk =   0.0008681
        k(  304) = (   0.1250000   0.4330127   0.0000000), wk =   0.0008681
        k(  305) = (   0.1250000   0.4570690   0.0000000), wk =   0.0008681
        k(  306) = (   0.1250000   0.4811252   0.0000000), wk =   0.0008681
        k(  307) = (   0.1250000   0.5051815   0.0000000), wk =   0.0008681
        k(  308) = (   0.1250000   0.5292377   0.0000000), wk =   0.0008681
        k(  309) = (   0.1250000   0.5532940   0.0000000), wk =   0.0008681
        k(  310) = (   0.1250000   0.5773503   0.0000000), wk =   0.0008681
        k(  311) = (   0.1250000   0.6014065   0.0000000), wk =   0.0008681
        k(  312) = (   0.1250000   0.6254628   0.0000000), wk =   0.0008681
        k(  313) = (   0.1250000  -0.5051815   0.0000000), wk =   0.0008681
        k(  314) = (   0.1250000  -0.4811252   0.0000000), wk =   0.0008681
        k(  315) = (   0.1250000  -0.4570690   0.0000000), wk =   0.0008681
        k(  316) = (   0.1250000  -0.4330127   0.0000000), wk =   0.0008681
        k(  317) = (   0.1250000  -0.4089564   0.0000000), wk =   0.0008681
        k(  318) = (   0.1250000  -0.3849002   0.0000000), wk =   0.0008681
        k(  319) = (   0.1250000  -0.3608439   0.0000000), wk =   0.0008681
        k(  320) = (   0.1250000  -0.3367877   0.0000000), wk =   0.0008681
        k(  321) = (   0.1250000  -0.3127314   0.0000000), wk =   0.0008681
        k(  322) = (   0.1250000  -0.2886751   0.0000000), wk =   0.0008681
        k(  323) = (   0.1250000  -0.2646189   0.0000000), wk =   0.0008681
        k(  324) = (   0.1250000  -0.2405626   0.0000000), wk =   0.0008681
        k(  325) = (   0.1250000  -0.2165064   0.0000000), wk =   0.0008681
        k(  326) = (   0.1250000  -0.1924501   0.0000000), wk =   0.0008681
        k(  327) = (   0.1250000  -0.1683938   0.0000000), wk =   0.0008681
        k(  328) = (   0.1250000  -0.1443376   0.0000000), wk =   0.0008681
        k(  329) = (   0.1250000  -0.1202813   0.0000000), wk =   0.0008681
        k(  330) = (   0.1250000  -0.0962250   0.0000000), wk =   0.0008681
        k(  331) = (   0.1250000  -0.0721688   0.0000000), wk =   0.0008681
        k(  332) = (   0.1250000  -0.0481125   0.0000000), wk =   0.0008681
        k(  333) = (   0.1250000  -0.0240563   0.0000000), wk =   0.0008681
        k(  334) = (   0.1250000   0.0000000   0.0000000), wk =   0.0008681
        k(  335) = (   0.1250000   0.0240563   0.0000000), wk =   0.0008681
        k(  336) = (   0.1250000   0.0481125   0.0000000), wk =   0.0008681
        k(  337) = (   0.1458333   0.0841969   0.0000000), wk =   0.0008681
        k(  338) = (   0.1458333   0.1082532   0.0000000), wk =   0.0008681
        k(  339) = (   0.1458333   0.1323094   0.0000000), wk =   0.0008681
        k(  340) = (   0.1458333   0.1563657   0.0000000), wk =   0.0008681
        k(  341) = (   0.1458333   0.1804220   0.0000000), wk =   0.0008681
        k(  342) = (   0.1458333   0.2044782   0.0000000), wk =   0.0008681
        k(  343) = (   0.1458333   0.2285345   0.0000000), wk =   0.0008681
        k(  344) = (   0.1458333   0.2525907   0.0000000), wk =   0.0008681
        k(  345) = (   0.1458333   0.2766470   0.0000000), wk =   0.0008681
        k(  346) = (   0.1458333   0.3007033   0.0000000), wk =   0.0008681
        k(  347) = (   0.1458333   0.3247595   0.0000000), wk =   0.0008681
        k(  348) = (   0.1458333   0.3488158   0.0000000), wk =   0.0008681
        k(  349) = (   0.1458333   0.3728720   0.0000000), wk =   0.0008681
        k(  350) = (   0.1458333   0.3969283   0.0000000), wk =   0.0008681
        k(  351) = (   0.1458333   0.4209846   0.0000000), wk =   0.0008681
        k(  352) = (   0.1458333   0.4450408   0.0000000), wk =   0.0008681
        k(  353) = (   0.1458333   0.4690971   0.0000000), wk =   0.0008681
        k(  354) = (   0.1458333   0.4931534   0.0000000), wk =   0.0008681
        k(  355) = (   0.1458333   0.5172096   0.0000000), wk =   0.0008681
        k(  356) = (   0.1458333   0.5412659   0.0000000), wk =   0.0008681
        k(  357) = (   0.1458333   0.5653221   0.0000000), wk =   0.0008681
        k(  358) = (   0.1458333   0.5893784   0.0000000), wk =   0.0008681
        k(  359) = (   0.1458333   0.6134347   0.0000000), wk =   0.0008681
        k(  360) = (   0.1458333   0.6374909   0.0000000), wk =   0.0008681
        k(  361) = (   0.1458333  -0.4931534   0.0000000), wk =   0.0008681
        k(  362) = (   0.1458333  -0.4690971   0.0000000), wk =   0.0008681
        k(  363) = (   0.1458333  -0.4450408   0.0000000), wk =   0.0008681
        k(  364) = (   0.1458333  -0.4209846   0.0000000), wk =   0.0008681
        k(  365) = (   0.1458333  -0.3969283   0.0000000), wk =   0.0008681
        k(  366) = (   0.1458333  -0.3728720   0.0000000), wk =   0.0008681
        k(  367) = (   0.1458333  -0.3488158   0.0000000), wk =   0.0008681
        k(  368) = (   0.1458333  -0.3247595   0.0000000), wk =   0.0008681
        k(  369) = (   0.1458333  -0.3007033   0.0000000), wk =   0.0008681
        k(  370) = (   0.1458333  -0.2766470   0.0000000), wk =   0.0008681
        k(  371) = (   0.1458333  -0.2525907   0.0000000), wk =   0.0008681
        k(  372) = (   0.1458333  -0.2285345   0.0000000), wk =   0.0008681
        k(  373) = (   0.1458333  -0.2044782   0.0000000), wk =   0.0008681
        k(  374) = (   0.1458333  -0.1804220   0.0000000), wk =   0.0008681
        k(  375) = (   0.1458333  -0.1563657   0.0000000), wk =   0.0008681
        k(  376) = (   0.1458333  -0.1323094   0.0000000), wk =   0.0008681
        k(  377) = (   0.1458333  -0.1082532   0.0000000), wk =   0.0008681
        k(  378) = (   0.1458333  -0.0841969   0.0000000), wk =   0.0008681
        k(  379) = (   0.1458333  -0.0601407   0.0000000), wk =   0.0008681
        k(  380) = (   0.1458333  -0.0360844   0.0000000), wk =   0.0008681
        k(  381) = (   0.1458333  -0.0120281   0.0000000), wk =   0.0008681
        k(  382) = (   0.1458333   0.0120281   0.0000000), wk =   0.0008681
        k(  383) = (   0.1458333   0.0360844   0.0000000), wk =   0.0008681
        k(  384) = (   0.1458333   0.0601407   0.0000000), wk =   0.0008681
        k(  385) = (   0.1666667   0.0962250   0.0000000), wk =   0.0008681
        k(  386) = (   0.1666667   0.1202813   0.0000000), wk =   0.0008681
        k(  387) = (   0.1666667   0.1443376   0.0000000), wk =   0.0008681
        k(  388) = (   0.1666667   0.1683938   0.0000000), wk =   0.0008681
        k(  389) = (   0.1666667   0.1924501   0.0000000), wk =   0.0008681
        k(  390) = (   0.1666667   0.2165064   0.0000000), wk =   0.0008681
        k(  391) = (   0.1666667   0.2405626   0.0000000), wk =   0.0008681
        k(  392) = (   0.1666667   0.2646189   0.0000000), wk =   0.0008681
        k(  393) = (   0.1666667   0.2886751   0.0000000), wk =   0.0008681
        k(  394) = (   0.1666667   0.3127314   0.0000000), wk =   0.0008681
        k(  395) = (   0.1666667   0.3367877   0.0000000), wk =   0.0008681
        k(  396) = (   0.1666667   0.3608439   0.0000000), wk =   0.0008681
        k(  397) = (   0.1666667   0.3849002   0.0000000), wk =   0.0008681
        k(  398) = (   0.1666667   0.4089564   0.0000000), wk =   0.0008681
        k(  399) = (   0.1666667   0.4330127   0.0000000), wk =   0.0008681
        k(  400) = (   0.1666667   0.4570690   0.0000000), wk =   0.0008681
        k(  401) = (   0.1666667   0.4811252   0.0000000), wk =   0.0008681
        k(  402) = (   0.1666667   0.5051815   0.0000000), wk =   0.0008681
        k(  403) = (   0.1666667   0.5292377   0.0000000), wk =   0.0008681
        k(  404) = (   0.1666667   0.5532940   0.0000000), wk =   0.0008681
        k(  405) = (   0.1666667   0.5773503   0.0000000), wk =   0.0008681
        k(  406) = (   0.1666667   0.6014065   0.0000000), wk =   0.0008681
        k(  407) = (   0.1666667   0.6254628   0.0000000), wk =   0.0008681
        k(  408) = (   0.1666667   0.6495191   0.0000000), wk =   0.0008681
        k(  409) = (   0.1666667  -0.4811252   0.0000000), wk =   0.0008681
        k(  410) = (   0.1666667  -0.4570690   0.0000000), wk =   0.0008681
        k(  411) = (   0.1666667  -0.4330127   0.0000000), wk =   0.0008681
        k(  412) = (   0.1666667  -0.4089564   0.0000000), wk =   0.0008681
        k(  413) = (   0.1666667  -0.3849002   0.0000000), wk =   0.0008681
        k(  414) = (   0.1666667  -0.3608439   0.0000000), wk =   0.0008681
        k(  415) = (   0.1666667  -0.3367877   0.0000000), wk =   0.0008681
        k(  416) = (   0.1666667  -0.3127314   0.0000000), wk =   0.0008681
        k(  417) = (   0.1666667  -0.2886751   0.0000000), wk =   0.0008681
        k(  418) = (   0.1666667  -0.2646189   0.0000000), wk =   0.0008681
        k(  419) = (   0.1666667  -0.2405626   0.0000000), wk =   0.0008681
        k(  420) = (   0.1666667  -0.2165064   0.0000000), wk =   0.0008681
        k(  421) = (   0.1666667  -0.1924501   0.0000000), wk =   0.0008681
        k(  422) = (   0.1666667  -0.1683938   0.0000000), wk =   0.0008681
        k(  423) = (   0.1666667  -0.1443376   0.0000000), wk =   0.0008681
        k(  424) = (   0.1666667  -0.1202813   0.0000000), wk =   0.0008681
        k(  425) = (   0.1666667  -0.0962250   0.0000000), wk =   0.0008681
        k(  426) = (   0.1666667  -0.0721688   0.0000000), wk =   0.0008681
        k(  427) = (   0.1666667  -0.0481125   0.0000000), wk =   0.0008681
        k(  428) = (   0.1666667  -0.0240563   0.0000000), wk =   0.0008681
        k(  429) = (   0.1666667  -0.0000000   0.0000000), wk =   0.0008681
        k(  430) = (   0.1666667   0.0240563   0.0000000), wk =   0.0008681
        k(  431) = (   0.1666667   0.0481125   0.0000000), wk =   0.0008681
        k(  432) = (   0.1666667   0.0721688   0.0000000), wk =   0.0008681
        k(  433) = (   0.1875000   0.1082532   0.0000000), wk =   0.0008681
        k(  434) = (   0.1875000   0.1323094   0.0000000), wk =   0.0008681
        k(  435) = (   0.1875000   0.1563657   0.0000000), wk =   0.0008681
        k(  436) = (   0.1875000   0.1804220   0.0000000), wk =   0.0008681
        k(  437) = (   0.1875000   0.2044782   0.0000000), wk =   0.0008681
        k(  438) = (   0.1875000   0.2285345   0.0000000), wk =   0.0008681
        k(  439) = (   0.1875000   0.2525907   0.0000000), wk =   0.0008681
        k(  440) = (   0.1875000   0.2766470   0.0000000), wk =   0.0008681
        k(  441) = (   0.1875000   0.3007033   0.0000000), wk =   0.0008681
        k(  442) = (   0.1875000   0.3247595   0.0000000), wk =   0.0008681
        k(  443) = (   0.1875000   0.3488158   0.0000000), wk =   0.0008681
        k(  444) = (   0.1875000   0.3728720   0.0000000), wk =   0.0008681
        k(  445) = (   0.1875000   0.3969283   0.0000000), wk =   0.0008681
        k(  446) = (   0.1875000   0.4209846   0.0000000), wk =   0.0008681
        k(  447) = (   0.1875000   0.4450408   0.0000000), wk =   0.0008681
        k(  448) = (   0.1875000   0.4690971   0.0000000), wk =   0.0008681
        k(  449) = (   0.1875000   0.4931534   0.0000000), wk =   0.0008681
        k(  450) = (   0.1875000   0.5172096   0.0000000), wk =   0.0008681
        k(  451) = (   0.1875000   0.5412659   0.0000000), wk =   0.0008681
        k(  452) = (   0.1875000   0.5653221   0.0000000), wk =   0.0008681
        k(  453) = (   0.1875000   0.5893784   0.0000000), wk =   0.0008681
        k(  454) = (   0.1875000   0.6134347   0.0000000), wk =   0.0008681
        k(  455) = (   0.1875000   0.6374909   0.0000000), wk =   0.0008681
        k(  456) = (   0.1875000   0.6615472   0.0000000), wk =   0.0008681
        k(  457) = (   0.1875000  -0.4690971   0.0000000), wk =   0.0008681
        k(  458) = (   0.1875000  -0.4450408   0.0000000), wk =   0.0008681
        k(  459) = (   0.1875000  -0.4209846   0.0000000), wk =   0.0008681
        k(  460) = (   0.1875000  -0.3969283   0.0000000), wk =   0.0008681
        k(  461) = (   0.1875000  -0.3728720   0.0000000), wk =   0.0008681
        k(  462) = (   0.1875000  -0.3488158   0.0000000), wk =   0.0008681
        k(  463) = (   0.1875000  -0.3247595   0.0000000), wk =   0.0008681
        k(  464) = (   0.1875000  -0.3007033   0.0000000), wk =   0.0008681
        k(  465) = (   0.1875000  -0.2766470   0.0000000), wk =   0.0008681
        k(  466) = (   0.1875000  -0.2525907   0.0000000), wk =   0.0008681
        k(  467) = (   0.1875000  -0.2285345   0.0000000), wk =   0.0008681
        k(  468) = (   0.1875000  -0.2044782   0.0000000), wk =   0.0008681
        k(  469) = (   0.1875000  -0.1804220   0.0000000), wk =   0.0008681
        k(  470) = (   0.1875000  -0.1563657   0.0000000), wk =   0.0008681
        k(  471) = (   0.1875000  -0.1323094   0.0000000), wk =   0.0008681
        k(  472) = (   0.1875000  -0.1082532   0.0000000), wk =   0.0008681
        k(  473) = (   0.1875000  -0.0841969   0.0000000), wk =   0.0008681
        k(  474) = (   0.1875000  -0.0601407   0.0000000), wk =   0.0008681
        k(  475) = (   0.1875000  -0.0360844   0.0000000), wk =   0.0008681
        k(  476) = (   0.1875000  -0.0120281   0.0000000), wk =   0.0008681
        k(  477) = (   0.1875000   0.0120281   0.0000000), wk =   0.0008681
        k(  478) = (   0.1875000   0.0360844   0.0000000), wk =   0.0008681
        k(  479) = (   0.1875000   0.0601407   0.0000000), wk =   0.0008681
        k(  480) = (   0.1875000   0.0841969   0.0000000), wk =   0.0008681
        k(  481) = (   0.2083333   0.1202813   0.0000000), wk =   0.0008681
        k(  482) = (   0.2083333   0.1443376   0.0000000), wk =   0.0008681
        k(  483) = (   0.2083333   0.1683938   0.0000000), wk =   0.0008681
        k(  484) = (   0.2083333   0.1924501   0.0000000), wk =   0.0008681
        k(  485) = (   0.2083333   0.2165064   0.0000000), wk =   0.0008681
        k(  486) = (   0.2083333   0.2405626   0.0000000), wk =   0.0008681
        k(  487) = (   0.2083333   0.2646189   0.0000000), wk =   0.0008681
        k(  488) = (   0.2083333   0.2886751   0.0000000), wk =   0.0008681
        k(  489) = (   0.2083333   0.3127314   0.0000000), wk =   0.0008681
        k(  490) = (   0.2083333   0.3367877   0.0000000), wk =   0.0008681
        k(  491) = (   0.2083333   0.3608439   0.0000000), wk =   0.0008681
        k(  492) = (   0.2083333   0.3849002   0.0000000), wk =   0.0008681
        k(  493) = (   0.2083333   0.4089564   0.0000000), wk =   0.0008681
        k(  494) = (   0.2083333   0.4330127   0.0000000), wk =   0.0008681
        k(  495) = (   0.2083333   0.4570690   0.0000000), wk =   0.0008681
        k(  496) = (   0.2083333   0.4811252   0.0000000), wk =   0.0008681
        k(  497) = (   0.2083333   0.5051815   0.0000000), wk =   0.0008681
        k(  498) = (   0.2083333   0.5292377   0.0000000), wk =   0.0008681
        k(  499) = (   0.2083333   0.5532940   0.0000000), wk =   0.0008681
        k(  500) = (   0.2083333   0.5773503   0.0000000), wk =   0.0008681
        k(  501) = (   0.2083333   0.6014065   0.0000000), wk =   0.0008681
        k(  502) = (   0.2083333   0.6254628   0.0000000), wk =   0.0008681
        k(  503) = (   0.2083333   0.6495191   0.0000000), wk =   0.0008681
        k(  504) = (   0.2083333   0.6735753   0.0000000), wk =   0.0008681
        k(  505) = (   0.2083333  -0.4570690   0.0000000), wk =   0.0008681
        k(  506) = (   0.2083333  -0.4330127   0.0000000), wk =   0.0008681
        k(  507) = (   0.2083333  -0.4089564   0.0000000), wk =   0.0008681
        k(  508) = (   0.2083333  -0.3849002   0.0000000), wk =   0.0008681
        k(  509) = (   0.2083333  -0.3608439   0.0000000), wk =   0.0008681
        k(  510) = (   0.2083333  -0.3367877   0.0000000), wk =   0.0008681
        k(  511) = (   0.2083333  -0.3127314   0.0000000), wk =   0.0008681
        k(  512) = (   0.2083333  -0.2886751   0.0000000), wk =   0.0008681
        k(  513) = (   0.2083333  -0.2646189   0.0000000), wk =   0.0008681
        k(  514) = (   0.2083333  -0.2405626   0.0000000), wk =   0.0008681
        k(  515) = (   0.2083333  -0.2165064   0.0000000), wk =   0.0008681
        k(  516) = (   0.2083333  -0.1924501   0.0000000), wk =   0.0008681
        k(  517) = (   0.2083333  -0.1683938   0.0000000), wk =   0.0008681
        k(  518) = (   0.2083333  -0.1443376   0.0000000), wk =   0.0008681
        k(  519) = (   0.2083333  -0.1202813   0.0000000), wk =   0.0008681
        k(  520) = (   0.2083333  -0.0962250   0.0000000), wk =   0.0008681
        k(  521) = (   0.2083333  -0.0721688   0.0000000), wk =   0.0008681
        k(  522) = (   0.2083333  -0.0481125   0.0000000), wk =   0.0008681
        k(  523) = (   0.2083333  -0.0240563   0.0000000), wk =   0.0008681
        k(  524) = (   0.2083333  -0.0000000   0.0000000), wk =   0.0008681
        k(  525) = (   0.2083333   0.0240563   0.0000000), wk =   0.0008681
        k(  526) = (   0.2083333   0.0481125   0.0000000), wk =   0.0008681
        k(  527) = (   0.2083333   0.0721688   0.0000000), wk =   0.0008681
        k(  528) = (   0.2083333   0.0962250   0.0000000), wk =   0.0008681
        k(  529) = (   0.2291667   0.1323094   0.0000000), wk =   0.0008681
        k(  530) = (   0.2291667   0.1563657   0.0000000), wk =   0.0008681
        k(  531) = (   0.2291667   0.1804220   0.0000000), wk =   0.0008681
        k(  532) = (   0.2291667   0.2044782   0.0000000), wk =   0.0008681
        k(  533) = (   0.2291667   0.2285345   0.0000000), wk =   0.0008681
        k(  534) = (   0.2291667   0.2525907   0.0000000), wk =   0.0008681
        k(  535) = (   0.2291667   0.2766470   0.0000000), wk =   0.0008681
        k(  536) = (   0.2291667   0.3007033   0.0000000), wk =   0.0008681
        k(  537) = (   0.2291667   0.3247595   0.0000000), wk =   0.0008681
        k(  538) = (   0.2291667   0.3488158   0.0000000), wk =   0.0008681
        k(  539) = (   0.2291667   0.3728720   0.0000000), wk =   0.0008681
        k(  540) = (   0.2291667   0.3969283   0.0000000), wk =   0.0008681
        k(  541) = (   0.2291667   0.4209846   0.0000000), wk =   0.0008681
        k(  542) = (   0.2291667   0.4450408   0.0000000), wk =   0.0008681
        k(  543) = (   0.2291667   0.4690971   0.0000000), wk =   0.0008681
        k(  544) = (   0.2291667   0.4931534   0.0000000), wk =   0.0008681
        k(  545) = (   0.2291667   0.5172096   0.0000000), wk =   0.0008681
        k(  546) = (   0.2291667   0.5412659   0.0000000), wk =   0.0008681
        k(  547) = (   0.2291667   0.5653221   0.0000000), wk =   0.0008681
        k(  548) = (   0.2291667   0.5893784   0.0000000), wk =   0.0008681
        k(  549) = (   0.2291667   0.6134347   0.0000000), wk =   0.0008681
        k(  550) = (   0.2291667   0.6374909   0.0000000), wk =   0.0008681
        k(  551) = (   0.2291667   0.6615472   0.0000000), wk =   0.0008681
        k(  552) = (   0.2291667   0.6856034   0.0000000), wk =   0.0008681
        k(  553) = (   0.2291667  -0.4450408   0.0000000), wk =   0.0008681
        k(  554) = (   0.2291667  -0.4209846   0.0000000), wk =   0.0008681
        k(  555) = (   0.2291667  -0.3969283   0.0000000), wk =   0.0008681
        k(  556) = (   0.2291667  -0.3728720   0.0000000), wk =   0.0008681
        k(  557) = (   0.2291667  -0.3488158   0.0000000), wk =   0.0008681
        k(  558) = (   0.2291667  -0.3247595   0.0000000), wk =   0.0008681
        k(  559) = (   0.2291667  -0.3007033   0.0000000), wk =   0.0008681
        k(  560) = (   0.2291667  -0.2766470   0.0000000), wk =   0.0008681
        k(  561) = (   0.2291667  -0.2525907   0.0000000), wk =   0.0008681
        k(  562) = (   0.2291667  -0.2285345   0.0000000), wk =   0.0008681
        k(  563) = (   0.2291667  -0.2044782   0.0000000), wk =   0.0008681
        k(  564) = (   0.2291667  -0.1804220   0.0000000), wk =   0.0008681
        k(  565) = (   0.2291667  -0.1563657   0.0000000), wk =   0.0008681
        k(  566) = (   0.2291667  -0.1323094   0.0000000), wk =   0.0008681
        k(  567) = (   0.2291667  -0.1082532   0.0000000), wk =   0.0008681
        k(  568) = (   0.2291667  -0.0841969   0.0000000), wk =   0.0008681
        k(  569) = (   0.2291667  -0.0601407   0.0000000), wk =   0.0008681
        k(  570) = (   0.2291667  -0.0360844   0.0000000), wk =   0.0008681
        k(  571) = (   0.2291667  -0.0120281   0.0000000), wk =   0.0008681
        k(  572) = (   0.2291667   0.0120281   0.0000000), wk =   0.0008681
        k(  573) = (   0.2291667   0.0360844   0.0000000), wk =   0.0008681
        k(  574) = (   0.2291667   0.0601407   0.0000000), wk =   0.0008681
        k(  575) = (   0.2291667   0.0841969   0.0000000), wk =   0.0008681
        k(  576) = (   0.2291667   0.1082532   0.0000000), wk =   0.0008681
        k(  577) = (   0.2500000   0.1443376   0.0000000), wk =   0.0008681
        k(  578) = (   0.2500000   0.1683938   0.0000000), wk =   0.0008681
        k(  579) = (   0.2500000   0.1924501   0.0000000), wk =   0.0008681
        k(  580) = (   0.2500000   0.2165064   0.0000000), wk =   0.0008681
        k(  581) = (   0.2500000   0.2405626   0.0000000), wk =   0.0008681
        k(  582) = (   0.2500000   0.2646189   0.0000000), wk =   0.0008681
        k(  583) = (   0.2500000   0.2886751   0.0000000), wk =   0.0008681
        k(  584) = (   0.2500000   0.3127314   0.0000000), wk =   0.0008681
        k(  585) = (   0.2500000   0.3367877   0.0000000), wk =   0.0008681
        k(  586) = (   0.2500000   0.3608439   0.0000000), wk =   0.0008681
        k(  587) = (   0.2500000   0.3849002   0.0000000), wk =   0.0008681
        k(  588) = (   0.2500000   0.4089564   0.0000000), wk =   0.0008681
        k(  589) = (   0.2500000   0.4330127   0.0000000), wk =   0.0008681
        k(  590) = (   0.2500000   0.4570690   0.0000000), wk =   0.0008681
        k(  591) = (   0.2500000   0.4811252   0.0000000), wk =   0.0008681
        k(  592) = (   0.2500000   0.5051815   0.0000000), wk =   0.0008681
        k(  593) = (   0.2500000   0.5292377   0.0000000), wk =   0.0008681
        k(  594) = (   0.2500000   0.5532940   0.0000000), wk =   0.0008681
        k(  595) = (   0.2500000   0.5773503   0.0000000), wk =   0.0008681
        k(  596) = (   0.2500000   0.6014065   0.0000000), wk =   0.0008681
        k(  597) = (   0.2500000   0.6254628   0.0000000), wk =   0.0008681
        k(  598) = (   0.2500000   0.6495191   0.0000000), wk =   0.0008681
        k(  599) = (   0.2500000   0.6735753   0.0000000), wk =   0.0008681
        k(  600) = (   0.2500000   0.6976316   0.0000000), wk =   0.0008681
        k(  601) = (   0.2500000  -0.4330127   0.0000000), wk =   0.0008681
        k(  602) = (   0.2500000  -0.4089564   0.0000000), wk =   0.0008681
        k(  603) = (   0.2500000  -0.3849002   0.0000000), wk =   0.0008681
        k(  604) = (   0.2500000  -0.3608439   0.0000000), wk =   0.0008681
        k(  605) = (   0.2500000  -0.3367877   0.0000000), wk =   0.0008681
        k(  606) = (   0.2500000  -0.3127314   0.0000000), wk =   0.0008681
        k(  607) = (   0.2500000  -0.2886751   0.0000000), wk =   0.0008681
        k(  608) = (   0.2500000  -0.2646189   0.0000000), wk =   0.0008681
        k(  609) = (   0.2500000  -0.2405626   0.0000000), wk =   0.0008681
        k(  610) = (   0.2500000  -0.2165064   0.0000000), wk =   0.0008681
        k(  611) = (   0.2500000  -0.1924501   0.0000000), wk =   0.0008681
        k(  612) = (   0.2500000  -0.1683938   0.0000000), wk =   0.0008681
        k(  613) = (   0.2500000  -0.1443376   0.0000000), wk =   0.0008681
        k(  614) = (   0.2500000  -0.1202813   0.0000000), wk =   0.0008681
        k(  615) = (   0.2500000  -0.0962250   0.0000000), wk =   0.0008681
        k(  616) = (   0.2500000  -0.0721688   0.0000000), wk =   0.0008681
        k(  617) = (   0.2500000  -0.0481125   0.0000000), wk =   0.0008681
        k(  618) = (   0.2500000  -0.0240563   0.0000000), wk =   0.0008681
        k(  619) = (   0.2500000   0.0000000   0.0000000), wk =   0.0008681
        k(  620) = (   0.2500000   0.0240563   0.0000000), wk =   0.0008681
        k(  621) = (   0.2500000   0.0481125   0.0000000), wk =   0.0008681
        k(  622) = (   0.2500000   0.0721688   0.0000000), wk =   0.0008681
        k(  623) = (   0.2500000   0.0962250   0.0000000), wk =   0.0008681
        k(  624) = (   0.2500000   0.1202813   0.0000000), wk =   0.0008681
        k(  625) = (   0.2708333   0.1563657   0.0000000), wk =   0.0008681
        k(  626) = (   0.2708333   0.1804220   0.0000000), wk =   0.0008681
        k(  627) = (   0.2708333   0.2044782   0.0000000), wk =   0.0008681
        k(  628) = (   0.2708333   0.2285345   0.0000000), wk =   0.0008681
        k(  629) = (   0.2708333   0.2525907   0.0000000), wk =   0.0008681
        k(  630) = (   0.2708333   0.2766470   0.0000000), wk =   0.0008681
        k(  631) = (   0.2708333   0.3007033   0.0000000), wk =   0.0008681
        k(  632) = (   0.2708333   0.3247595   0.0000000), wk =   0.0008681
        k(  633) = (   0.2708333   0.3488158   0.0000000), wk =   0.0008681
        k(  634) = (   0.2708333   0.3728720   0.0000000), wk =   0.0008681
        k(  635) = (   0.2708333   0.3969283   0.0000000), wk =   0.0008681
        k(  636) = (   0.2708333   0.4209846   0.0000000), wk =   0.0008681
        k(  637) = (   0.2708333   0.4450408   0.0000000), wk =   0.0008681
        k(  638) = (   0.2708333   0.4690971   0.0000000), wk =   0.0008681
        k(  639) = (   0.2708333   0.4931534   0.0000000), wk =   0.0008681
        k(  640) = (   0.2708333   0.5172096   0.0000000), wk =   0.0008681
        k(  641) = (   0.2708333   0.5412659   0.0000000), wk =   0.0008681
        k(  642) = (   0.2708333   0.5653221   0.0000000), wk =   0.0008681
        k(  643) = (   0.2708333   0.5893784   0.0000000), wk =   0.0008681
        k(  644) = (   0.2708333   0.6134347   0.0000000), wk =   0.0008681
        k(  645) = (   0.2708333   0.6374909   0.0000000), wk =   0.0008681
        k(  646) = (   0.2708333   0.6615472   0.0000000), wk =   0.0008681
        k(  647) = (   0.2708333   0.6856034   0.0000000), wk =   0.0008681
        k(  648) = (   0.2708333   0.7096597   0.0000000), wk =   0.0008681
        k(  649) = (   0.2708333  -0.4209846   0.0000000), wk =   0.0008681
        k(  650) = (   0.2708333  -0.3969283   0.0000000), wk =   0.0008681
        k(  651) = (   0.2708333  -0.3728720   0.0000000), wk =   0.0008681
        k(  652) = (   0.2708333  -0.3488158   0.0000000), wk =   0.0008681
        k(  653) = (   0.2708333  -0.3247595   0.0000000), wk =   0.0008681
        k(  654) = (   0.2708333  -0.3007033   0.0000000), wk =   0.0008681
        k(  655) = (   0.2708333  -0.2766470   0.0000000), wk =   0.0008681
        k(  656) = (   0.2708333  -0.2525907   0.0000000), wk =   0.0008681
        k(  657) = (   0.2708333  -0.2285345   0.0000000), wk =   0.0008681
        k(  658) = (   0.2708333  -0.2044782   0.0000000), wk =   0.0008681
        k(  659) = (   0.2708333  -0.1804220   0.0000000), wk =   0.0008681
        k(  660) = (   0.2708333  -0.1563657   0.0000000), wk =   0.0008681
        k(  661) = (   0.2708333  -0.1323094   0.0000000), wk =   0.0008681
        k(  662) = (   0.2708333  -0.1082532   0.0000000), wk =   0.0008681
        k(  663) = (   0.2708333  -0.0841969   0.0000000), wk =   0.0008681
        k(  664) = (   0.2708333  -0.0601407   0.0000000), wk =   0.0008681
        k(  665) = (   0.2708333  -0.0360844   0.0000000), wk =   0.0008681
        k(  666) = (   0.2708333  -0.0120281   0.0000000), wk =   0.0008681
        k(  667) = (   0.2708333   0.0120281   0.0000000), wk =   0.0008681
        k(  668) = (   0.2708333   0.0360844   0.0000000), wk =   0.0008681
        k(  669) = (   0.2708333   0.0601407   0.0000000), wk =   0.0008681
        k(  670) = (   0.2708333   0.0841969   0.0000000), wk =   0.0008681
        k(  671) = (   0.2708333   0.1082532   0.0000000), wk =   0.0008681
        k(  672) = (   0.2708333   0.1323094   0.0000000), wk =   0.0008681
        k(  673) = (   0.2916667   0.1683938   0.0000000), wk =   0.0008681
        k(  674) = (   0.2916667   0.1924501   0.0000000), wk =   0.0008681
        k(  675) = (   0.2916667   0.2165064   0.0000000), wk =   0.0008681
        k(  676) = (   0.2916667   0.2405626   0.0000000), wk =   0.0008681
        k(  677) = (   0.2916667   0.2646189   0.0000000), wk =   0.0008681
        k(  678) = (   0.2916667   0.2886751   0.0000000), wk =   0.0008681
        k(  679) = (   0.2916667   0.3127314   0.0000000), wk =   0.0008681
        k(  680) = (   0.2916667   0.3367877   0.0000000), wk =   0.0008681
        k(  681) = (   0.2916667   0.3608439   0.0000000), wk =   0.0008681
        k(  682) = (   0.2916667   0.3849002   0.0000000), wk =   0.0008681
        k(  683) = (   0.2916667   0.4089564   0.0000000), wk =   0.0008681
        k(  684) = (   0.2916667   0.4330127   0.0000000), wk =   0.0008681
        k(  685) = (   0.2916667   0.4570690   0.0000000), wk =   0.0008681
        k(  686) = (   0.2916667   0.4811252   0.0000000), wk =   0.0008681
        k(  687) = (   0.2916667   0.5051815   0.0000000), wk =   0.0008681
        k(  688) = (   0.2916667   0.5292377   0.0000000), wk =   0.0008681
        k(  689) = (   0.2916667   0.5532940   0.0000000), wk =   0.0008681
        k(  690) = (   0.2916667   0.5773503   0.0000000), wk =   0.0008681
        k(  691) = (   0.2916667   0.6014065   0.0000000), wk =   0.0008681
        k(  692) = (   0.2916667   0.6254628   0.0000000), wk =   0.0008681
        k(  693) = (   0.2916667   0.6495191   0.0000000), wk =   0.0008681
        k(  694) = (   0.2916667   0.6735753   0.0000000), wk =   0.0008681
        k(  695) = (   0.2916667   0.6976316   0.0000000), wk =   0.0008681
        k(  696) = (   0.2916667   0.7216878   0.0000000), wk =   0.0008681
        k(  697) = (   0.2916667  -0.4089564   0.0000000), wk =   0.0008681
        k(  698) = (   0.2916667  -0.3849002   0.0000000), wk =   0.0008681
        k(  699) = (   0.2916667  -0.3608439   0.0000000), wk =   0.0008681
        k(  700) = (   0.2916667  -0.3367877   0.0000000), wk =   0.0008681
        k(  701) = (   0.2916667  -0.3127314   0.0000000), wk =   0.0008681
        k(  702) = (   0.2916667  -0.2886751   0.0000000), wk =   0.0008681
        k(  703) = (   0.2916667  -0.2646189   0.0000000), wk =   0.0008681
        k(  704) = (   0.2916667  -0.2405626   0.0000000), wk =   0.0008681
        k(  705) = (   0.2916667  -0.2165064   0.0000000), wk =   0.0008681
        k(  706) = (   0.2916667  -0.1924501   0.0000000), wk =   0.0008681
        k(  707) = (   0.2916667  -0.1683938   0.0000000), wk =   0.0008681
        k(  708) = (   0.2916667  -0.1443376   0.0000000), wk =   0.0008681
        k(  709) = (   0.2916667  -0.1202813   0.0000000), wk =   0.0008681
        k(  710) = (   0.2916667  -0.0962250   0.0000000), wk =   0.0008681
        k(  711) = (   0.2916667  -0.0721688   0.0000000), wk =   0.0008681
        k(  712) = (   0.2916667  -0.0481125   0.0000000), wk =   0.0008681
        k(  713) = (   0.2916667  -0.0240563   0.0000000), wk =   0.0008681
        k(  714) = (   0.2916667  -0.0000000   0.0000000), wk =   0.0008681
        k(  715) = (   0.2916667   0.0240563   0.0000000), wk =   0.0008681
        k(  716) = (   0.2916667   0.0481125   0.0000000), wk =   0.0008681
        k(  717) = (   0.2916667   0.0721688   0.0000000), wk =   0.0008681
        k(  718) = (   0.2916667   0.0962250   0.0000000), wk =   0.0008681
        k(  719) = (   0.2916667   0.1202813   0.0000000), wk =   0.0008681
        k(  720) = (   0.2916667   0.1443376   0.0000000), wk =   0.0008681
        k(  721) = (   0.3125000   0.1804220   0.0000000), wk =   0.0008681
        k(  722) = (   0.3125000   0.2044782   0.0000000), wk =   0.0008681
        k(  723) = (   0.3125000   0.2285345   0.0000000), wk =   0.0008681
        k(  724) = (   0.3125000   0.2525907   0.0000000), wk =   0.0008681
        k(  725) = (   0.3125000   0.2766470   0.0000000), wk =   0.0008681
        k(  726) = (   0.3125000   0.3007033   0.0000000), wk =   0.0008681
        k(  727) = (   0.3125000   0.3247595   0.0000000), wk =   0.0008681
        k(  728) = (   0.3125000   0.3488158   0.0000000), wk =   0.0008681
        k(  729) = (   0.3125000   0.3728720   0.0000000), wk =   0.0008681
        k(  730) = (   0.3125000   0.3969283   0.0000000), wk =   0.0008681
        k(  731) = (   0.3125000   0.4209846   0.0000000), wk =   0.0008681
        k(  732) = (   0.3125000   0.4450408   0.0000000), wk =   0.0008681
        k(  733) = (   0.3125000   0.4690971   0.0000000), wk =   0.0008681
        k(  734) = (   0.3125000   0.4931534   0.0000000), wk =   0.0008681
        k(  735) = (   0.3125000   0.5172096   0.0000000), wk =   0.0008681
        k(  736) = (   0.3125000   0.5412659   0.0000000), wk =   0.0008681
        k(  737) = (   0.3125000   0.5653221   0.0000000), wk =   0.0008681
        k(  738) = (   0.3125000   0.5893784   0.0000000), wk =   0.0008681
        k(  739) = (   0.3125000   0.6134347   0.0000000), wk =   0.0008681
        k(  740) = (   0.3125000   0.6374909   0.0000000), wk =   0.0008681
        k(  741) = (   0.3125000   0.6615472   0.0000000), wk =   0.0008681
        k(  742) = (   0.3125000   0.6856034   0.0000000), wk =   0.0008681
        k(  743) = (   0.3125000   0.7096597   0.0000000), wk =   0.0008681
        k(  744) = (   0.3125000   0.7337160   0.0000000), wk =   0.0008681
        k(  745) = (   0.3125000  -0.3969283   0.0000000), wk =   0.0008681
        k(  746) = (   0.3125000  -0.3728720   0.0000000), wk =   0.0008681
        k(  747) = (   0.3125000  -0.3488158   0.0000000), wk =   0.0008681
        k(  748) = (   0.3125000  -0.3247595   0.0000000), wk =   0.0008681
        k(  749) = (   0.3125000  -0.3007033   0.0000000), wk =   0.0008681
        k(  750) = (   0.3125000  -0.2766470   0.0000000), wk =   0.0008681
        k(  751) = (   0.3125000  -0.2525907   0.0000000), wk =   0.0008681
        k(  752) = (   0.3125000  -0.2285345   0.0000000), wk =   0.0008681
        k(  753) = (   0.3125000  -0.2044782   0.0000000), wk =   0.0008681
        k(  754) = (   0.3125000  -0.1804220   0.0000000), wk =   0.0008681
        k(  755) = (   0.3125000  -0.1563657   0.0000000), wk =   0.0008681
        k(  756) = (   0.3125000  -0.1323094   0.0000000), wk =   0.0008681
        k(  757) = (   0.3125000  -0.1082532   0.0000000), wk =   0.0008681
        k(  758) = (   0.3125000  -0.0841969   0.0000000), wk =   0.0008681
        k(  759) = (   0.3125000  -0.0601407   0.0000000), wk =   0.0008681
        k(  760) = (   0.3125000  -0.0360844   0.0000000), wk =   0.0008681
        k(  761) = (   0.3125000  -0.0120281   0.0000000), wk =   0.0008681
        k(  762) = (   0.3125000   0.0120281   0.0000000), wk =   0.0008681
        k(  763) = (   0.3125000   0.0360844   0.0000000), wk =   0.0008681
        k(  764) = (   0.3125000   0.0601407   0.0000000), wk =   0.0008681
        k(  765) = (   0.3125000   0.0841969   0.0000000), wk =   0.0008681
        k(  766) = (   0.3125000   0.1082532   0.0000000), wk =   0.0008681
        k(  767) = (   0.3125000   0.1323094   0.0000000), wk =   0.0008681
        k(  768) = (   0.3125000   0.1563657   0.0000000), wk =   0.0008681
        k(  769) = (   0.3333333   0.1924501   0.0000000), wk =   0.0008681
        k(  770) = (   0.3333333   0.2165064   0.0000000), wk =   0.0008681
        k(  771) = (   0.3333333   0.2405626   0.0000000), wk =   0.0008681
        k(  772) = (   0.3333333   0.2646189   0.0000000), wk =   0.0008681
        k(  773) = (   0.3333333   0.2886751   0.0000000), wk =   0.0008681
        k(  774) = (   0.3333333   0.3127314   0.0000000), wk =   0.0008681
        k(  775) = (   0.3333333   0.3367877   0.0000000), wk =   0.0008681
        k(  776) = (   0.3333333   0.3608439   0.0000000), wk =   0.0008681
        k(  777) = (   0.3333333   0.3849002   0.0000000), wk =   0.0008681
        k(  778) = (   0.3333333   0.4089564   0.0000000), wk =   0.0008681
        k(  779) = (   0.3333333   0.4330127   0.0000000), wk =   0.0008681
        k(  780) = (   0.3333333   0.4570690   0.0000000), wk =   0.0008681
        k(  781) = (   0.3333333   0.4811252   0.0000000), wk =   0.0008681
        k(  782) = (   0.3333333   0.5051815   0.0000000), wk =   0.0008681
        k(  783) = (   0.3333333   0.5292377   0.0000000), wk =   0.0008681
        k(  784) = (   0.3333333   0.5532940   0.0000000), wk =   0.0008681
        k(  785) = (   0.3333333   0.5773503   0.0000000), wk =   0.0008681
        k(  786) = (   0.3333333   0.6014065   0.0000000), wk =   0.0008681
        k(  787) = (   0.3333333   0.6254628   0.0000000), wk =   0.0008681
        k(  788) = (   0.3333333   0.6495191   0.0000000), wk =   0.0008681
        k(  789) = (   0.3333333   0.6735753   0.0000000), wk =   0.0008681
        k(  790) = (   0.3333333   0.6976316   0.0000000), wk =   0.0008681
        k(  791) = (   0.3333333   0.7216878   0.0000000), wk =   0.0008681
        k(  792) = (   0.3333333   0.7457441   0.0000000), wk =   0.0008681
        k(  793) = (   0.3333333  -0.3849002   0.0000000), wk =   0.0008681
        k(  794) = (   0.3333333  -0.3608439   0.0000000), wk =   0.0008681
        k(  795) = (   0.3333333  -0.3367877   0.0000000), wk =   0.0008681
        k(  796) = (   0.3333333  -0.3127314   0.0000000), wk =   0.0008681
        k(  797) = (   0.3333333  -0.2886751   0.0000000), wk =   0.0008681
        k(  798) = (   0.3333333  -0.2646189   0.0000000), wk =   0.0008681
        k(  799) = (   0.3333333  -0.2405626   0.0000000), wk =   0.0008681
        k(  800) = (   0.3333333  -0.2165064   0.0000000), wk =   0.0008681
        k(  801) = (   0.3333333  -0.1924501   0.0000000), wk =   0.0008681
        k(  802) = (   0.3333333  -0.1683938   0.0000000), wk =   0.0008681
        k(  803) = (   0.3333333  -0.1443376   0.0000000), wk =   0.0008681
        k(  804) = (   0.3333333  -0.1202813   0.0000000), wk =   0.0008681
        k(  805) = (   0.3333333  -0.0962250   0.0000000), wk =   0.0008681
        k(  806) = (   0.3333333  -0.0721688   0.0000000), wk =   0.0008681
        k(  807) = (   0.3333333  -0.0481125   0.0000000), wk =   0.0008681
        k(  808) = (   0.3333333  -0.0240563   0.0000000), wk =   0.0008681
        k(  809) = (   0.3333333  -0.0000000   0.0000000), wk =   0.0008681
        k(  810) = (   0.3333333   0.0240563   0.0000000), wk =   0.0008681
        k(  811) = (   0.3333333   0.0481125   0.0000000), wk =   0.0008681
        k(  812) = (   0.3333333   0.0721688   0.0000000), wk =   0.0008681
        k(  813) = (   0.3333333   0.0962250   0.0000000), wk =   0.0008681
        k(  814) = (   0.3333333   0.1202813   0.0000000), wk =   0.0008681
        k(  815) = (   0.3333333   0.1443376   0.0000000), wk =   0.0008681
        k(  816) = (   0.3333333   0.1683938   0.0000000), wk =   0.0008681
        k(  817) = (   0.3541667   0.2044782   0.0000000), wk =   0.0008681
        k(  818) = (   0.3541667   0.2285345   0.0000000), wk =   0.0008681
        k(  819) = (   0.3541667   0.2525907   0.0000000), wk =   0.0008681
        k(  820) = (   0.3541667   0.2766470   0.0000000), wk =   0.0008681
        k(  821) = (   0.3541667   0.3007033   0.0000000), wk =   0.0008681
        k(  822) = (   0.3541667   0.3247595   0.0000000), wk =   0.0008681
        k(  823) = (   0.3541667   0.3488158   0.0000000), wk =   0.0008681
        k(  824) = (   0.3541667   0.3728720   0.0000000), wk =   0.0008681
        k(  825) = (   0.3541667   0.3969283   0.0000000), wk =   0.0008681
        k(  826) = (   0.3541667   0.4209846   0.0000000), wk =   0.0008681
        k(  827) = (   0.3541667   0.4450408   0.0000000), wk =   0.0008681
        k(  828) = (   0.3541667   0.4690971   0.0000000), wk =   0.0008681
        k(  829) = (   0.3541667   0.4931534   0.0000000), wk =   0.0008681
        k(  830) = (   0.3541667   0.5172096   0.0000000), wk =   0.0008681
        k(  831) = (   0.3541667   0.5412659   0.0000000), wk =   0.0008681
        k(  832) = (   0.3541667   0.5653221   0.0000000), wk =   0.0008681
        k(  833) = (   0.3541667   0.5893784   0.0000000), wk =   0.0008681
        k(  834) = (   0.3541667   0.6134347   0.0000000), wk =   0.0008681
        k(  835) = (   0.3541667   0.6374909   0.0000000), wk =   0.0008681
        k(  836) = (   0.3541667   0.6615472   0.0000000), wk =   0.0008681
        k(  837) = (   0.3541667   0.6856034   0.0000000), wk =   0.0008681
        k(  838) = (   0.3541667   0.7096597   0.0000000), wk =   0.0008681
        k(  839) = (   0.3541667   0.7337160   0.0000000), wk =   0.0008681
        k(  840) = (   0.3541667   0.7577722   0.0000000), wk =   0.0008681
        k(  841) = (   0.3541667  -0.3728720   0.0000000), wk =   0.0008681
        k(  842) = (   0.3541667  -0.3488158   0.0000000), wk =   0.0008681
        k(  843) = (   0.3541667  -0.3247595   0.0000000), wk =   0.0008681
        k(  844) = (   0.3541667  -0.3007033   0.0000000), wk =   0.0008681
        k(  845) = (   0.3541667  -0.2766470   0.0000000), wk =   0.0008681
        k(  846) = (   0.3541667  -0.2525907   0.0000000), wk =   0.0008681
        k(  847) = (   0.3541667  -0.2285345   0.0000000), wk =   0.0008681
        k(  848) = (   0.3541667  -0.2044782   0.0000000), wk =   0.0008681
        k(  849) = (   0.3541667  -0.1804220   0.0000000), wk =   0.0008681
        k(  850) = (   0.3541667  -0.1563657   0.0000000), wk =   0.0008681
        k(  851) = (   0.3541667  -0.1323094   0.0000000), wk =   0.0008681
        k(  852) = (   0.3541667  -0.1082532   0.0000000), wk =   0.0008681
        k(  853) = (   0.3541667  -0.0841969   0.0000000), wk =   0.0008681
        k(  854) = (   0.3541667  -0.0601407   0.0000000), wk =   0.0008681
        k(  855) = (   0.3541667  -0.0360844   0.0000000), wk =   0.0008681
        k(  856) = (   0.3541667  -0.0120281   0.0000000), wk =   0.0008681
        k(  857) = (   0.3541667   0.0120281   0.0000000), wk =   0.0008681
        k(  858) = (   0.3541667   0.0360844   0.0000000), wk =   0.0008681
        k(  859) = (   0.3541667   0.0601407   0.0000000), wk =   0.0008681
        k(  860) = (   0.3541667   0.0841969   0.0000000), wk =   0.0008681
        k(  861) = (   0.3541667   0.1082532   0.0000000), wk =   0.0008681
        k(  862) = (   0.3541667   0.1323094   0.0000000), wk =   0.0008681
        k(  863) = (   0.3541667   0.1563657   0.0000000), wk =   0.0008681
        k(  864) = (   0.3541667   0.1804220   0.0000000), wk =   0.0008681
        k(  865) = (   0.3750000   0.2165064   0.0000000), wk =   0.0008681
        k(  866) = (   0.3750000   0.2405626   0.0000000), wk =   0.0008681
        k(  867) = (   0.3750000   0.2646189   0.0000000), wk =   0.0008681
        k(  868) = (   0.3750000   0.2886751   0.0000000), wk =   0.0008681
        k(  869) = (   0.3750000   0.3127314   0.0000000), wk =   0.0008681
        k(  870) = (   0.3750000   0.3367877   0.0000000), wk =   0.0008681
        k(  871) = (   0.3750000   0.3608439   0.0000000), wk =   0.0008681
        k(  872) = (   0.3750000   0.3849002   0.0000000), wk =   0.0008681
        k(  873) = (   0.3750000   0.4089564   0.0000000), wk =   0.0008681
        k(  874) = (   0.3750000   0.4330127   0.0000000), wk =   0.0008681
        k(  875) = (   0.3750000   0.4570690   0.0000000), wk =   0.0008681
        k(  876) = (   0.3750000   0.4811252   0.0000000), wk =   0.0008681
        k(  877) = (   0.3750000   0.5051815   0.0000000), wk =   0.0008681
        k(  878) = (   0.3750000   0.5292377   0.0000000), wk =   0.0008681
        k(  879) = (   0.3750000   0.5532940   0.0000000), wk =   0.0008681
        k(  880) = (   0.3750000   0.5773503   0.0000000), wk =   0.0008681
        k(  881) = (   0.3750000   0.6014065   0.0000000), wk =   0.0008681
        k(  882) = (   0.3750000   0.6254628   0.0000000), wk =   0.0008681
        k(  883) = (   0.3750000   0.6495191   0.0000000), wk =   0.0008681
        k(  884) = (   0.3750000   0.6735753   0.0000000), wk =   0.0008681
        k(  885) = (   0.3750000   0.6976316   0.0000000), wk =   0.0008681
        k(  886) = (   0.3750000   0.7216878   0.0000000), wk =   0.0008681
        k(  887) = (   0.3750000   0.7457441   0.0000000), wk =   0.0008681
        k(  888) = (   0.3750000   0.7698004   0.0000000), wk =   0.0008681
        k(  889) = (   0.3750000  -0.3608439   0.0000000), wk =   0.0008681
        k(  890) = (   0.3750000  -0.3367877   0.0000000), wk =   0.0008681
        k(  891) = (   0.3750000  -0.3127314   0.0000000), wk =   0.0008681
        k(  892) = (   0.3750000  -0.2886751   0.0000000), wk =   0.0008681
        k(  893) = (   0.3750000  -0.2646189   0.0000000), wk =   0.0008681
        k(  894) = (   0.3750000  -0.2405626   0.0000000), wk =   0.0008681
        k(  895) = (   0.3750000  -0.2165064   0.0000000), wk =   0.0008681
        k(  896) = (   0.3750000  -0.1924501   0.0000000), wk =   0.0008681
        k(  897) = (   0.3750000  -0.1683938   0.0000000), wk =   0.0008681
        k(  898) = (   0.3750000  -0.1443376   0.0000000), wk =   0.0008681
        k(  899) = (   0.3750000  -0.1202813   0.0000000), wk =   0.0008681
        k(  900) = (   0.3750000  -0.0962250   0.0000000), wk =   0.0008681
        k(  901) = (   0.3750000  -0.0721688   0.0000000), wk =   0.0008681
        k(  902) = (   0.3750000  -0.0481125   0.0000000), wk =   0.0008681
        k(  903) = (   0.3750000  -0.0240563   0.0000000), wk =   0.0008681
        k(  904) = (   0.3750000   0.0000000   0.0000000), wk =   0.0008681
        k(  905) = (   0.3750000   0.0240563   0.0000000), wk =   0.0008681
        k(  906) = (   0.3750000   0.0481125   0.0000000), wk =   0.0008681
        k(  907) = (   0.3750000   0.0721688   0.0000000), wk =   0.0008681
        k(  908) = (   0.3750000   0.0962250   0.0000000), wk =   0.0008681
        k(  909) = (   0.3750000   0.1202813   0.0000000), wk =   0.0008681
        k(  910) = (   0.3750000   0.1443376   0.0000000), wk =   0.0008681
        k(  911) = (   0.3750000   0.1683938   0.0000000), wk =   0.0008681
        k(  912) = (   0.3750000   0.1924501   0.0000000), wk =   0.0008681
        k(  913) = (   0.3958333   0.2285345   0.0000000), wk =   0.0008681
        k(  914) = (   0.3958333   0.2525907   0.0000000), wk =   0.0008681
        k(  915) = (   0.3958333   0.2766470   0.0000000), wk =   0.0008681
        k(  916) = (   0.3958333   0.3007033   0.0000000), wk =   0.0008681
        k(  917) = (   0.3958333   0.3247595   0.0000000), wk =   0.0008681
        k(  918) = (   0.3958333   0.3488158   0.0000000), wk =   0.0008681
        k(  919) = (   0.3958333   0.3728720   0.0000000), wk =   0.0008681
        k(  920) = (   0.3958333   0.3969283   0.0000000), wk =   0.0008681
        k(  921) = (   0.3958333   0.4209846   0.0000000), wk =   0.0008681
        k(  922) = (   0.3958333   0.4450408   0.0000000), wk =   0.0008681
        k(  923) = (   0.3958333   0.4690971   0.0000000), wk =   0.0008681
        k(  924) = (   0.3958333   0.4931534   0.0000000), wk =   0.0008681
        k(  925) = (   0.3958333   0.5172096   0.0000000), wk =   0.0008681
        k(  926) = (   0.3958333   0.5412659   0.0000000), wk =   0.0008681
        k(  927) = (   0.3958333   0.5653221   0.0000000), wk =   0.0008681
        k(  928) = (   0.3958333   0.5893784   0.0000000), wk =   0.0008681
        k(  929) = (   0.3958333   0.6134347   0.0000000), wk =   0.0008681
        k(  930) = (   0.3958333   0.6374909   0.0000000), wk =   0.0008681
        k(  931) = (   0.3958333   0.6615472   0.0000000), wk =   0.0008681
        k(  932) = (   0.3958333   0.6856034   0.0000000), wk =   0.0008681
        k(  933) = (   0.3958333   0.7096597   0.0000000), wk =   0.0008681
        k(  934) = (   0.3958333   0.7337160   0.0000000), wk =   0.0008681
        k(  935) = (   0.3958333   0.7577722   0.0000000), wk =   0.0008681
        k(  936) = (   0.3958333   0.7818285   0.0000000), wk =   0.0008681
        k(  937) = (   0.3958333  -0.3488158   0.0000000), wk =   0.0008681
        k(  938) = (   0.3958333  -0.3247595   0.0000000), wk =   0.0008681
        k(  939) = (   0.3958333  -0.3007033   0.0000000), wk =   0.0008681
        k(  940) = (   0.3958333  -0.2766470   0.0000000), wk =   0.0008681
        k(  941) = (   0.3958333  -0.2525907   0.0000000), wk =   0.0008681
        k(  942) = (   0.3958333  -0.2285345   0.0000000), wk =   0.0008681
        k(  943) = (   0.3958333  -0.2044782   0.0000000), wk =   0.0008681
        k(  944) = (   0.3958333  -0.1804220   0.0000000), wk =   0.0008681
        k(  945) = (   0.3958333  -0.1563657   0.0000000), wk =   0.0008681
        k(  946) = (   0.3958333  -0.1323094   0.0000000), wk =   0.0008681
        k(  947) = (   0.3958333  -0.1082532   0.0000000), wk =   0.0008681
        k(  948) = (   0.3958333  -0.0841969   0.0000000), wk =   0.0008681
        k(  949) = (   0.3958333  -0.0601407   0.0000000), wk =   0.0008681
        k(  950) = (   0.3958333  -0.0360844   0.0000000), wk =   0.0008681
        k(  951) = (   0.3958333  -0.0120281   0.0000000), wk =   0.0008681
        k(  952) = (   0.3958333   0.0120281   0.0000000), wk =   0.0008681
        k(  953) = (   0.3958333   0.0360844   0.0000000), wk =   0.0008681
        k(  954) = (   0.3958333   0.0601407   0.0000000), wk =   0.0008681
        k(  955) = (   0.3958333   0.0841969   0.0000000), wk =   0.0008681
        k(  956) = (   0.3958333   0.1082532   0.0000000), wk =   0.0008681
        k(  957) = (   0.3958333   0.1323094   0.0000000), wk =   0.0008681
        k(  958) = (   0.3958333   0.1563657   0.0000000), wk =   0.0008681
        k(  959) = (   0.3958333   0.1804220   0.0000000), wk =   0.0008681
        k(  960) = (   0.3958333   0.2044782   0.0000000), wk =   0.0008681
        k(  961) = (   0.4166667   0.2405626   0.0000000), wk =   0.0008681
        k(  962) = (   0.4166667   0.2646189   0.0000000), wk =   0.0008681
        k(  963) = (   0.4166667   0.2886751   0.0000000), wk =   0.0008681
        k(  964) = (   0.4166667   0.3127314   0.0000000), wk =   0.0008681
        k(  965) = (   0.4166667   0.3367877   0.0000000), wk =   0.0008681
        k(  966) = (   0.4166667   0.3608439   0.0000000), wk =   0.0008681
        k(  967) = (   0.4166667   0.3849002   0.0000000), wk =   0.0008681
        k(  968) = (   0.4166667   0.4089564   0.0000000), wk =   0.0008681
        k(  969) = (   0.4166667   0.4330127   0.0000000), wk =   0.0008681
        k(  970) = (   0.4166667   0.4570690   0.0000000), wk =   0.0008681
        k(  971) = (   0.4166667   0.4811252   0.0000000), wk =   0.0008681
        k(  972) = (   0.4166667   0.5051815   0.0000000), wk =   0.0008681
        k(  973) = (   0.4166667   0.5292377   0.0000000), wk =   0.0008681
        k(  974) = (   0.4166667   0.5532940   0.0000000), wk =   0.0008681
        k(  975) = (   0.4166667   0.5773503   0.0000000), wk =   0.0008681
        k(  976) = (   0.4166667   0.6014065   0.0000000), wk =   0.0008681
        k(  977) = (   0.4166667   0.6254628   0.0000000), wk =   0.0008681
        k(  978) = (   0.4166667   0.6495191   0.0000000), wk =   0.0008681
        k(  979) = (   0.4166667   0.6735753   0.0000000), wk =   0.0008681
        k(  980) = (   0.4166667   0.6976316   0.0000000), wk =   0.0008681
        k(  981) = (   0.4166667   0.7216878   0.0000000), wk =   0.0008681
        k(  982) = (   0.4166667   0.7457441   0.0000000), wk =   0.0008681
        k(  983) = (   0.4166667   0.7698004   0.0000000), wk =   0.0008681
        k(  984) = (   0.4166667   0.7938566   0.0000000), wk =   0.0008681
        k(  985) = (   0.4166667  -0.3367877   0.0000000), wk =   0.0008681
        k(  986) = (   0.4166667  -0.3127314   0.0000000), wk =   0.0008681
        k(  987) = (   0.4166667  -0.2886751   0.0000000), wk =   0.0008681
        k(  988) = (   0.4166667  -0.2646189   0.0000000), wk =   0.0008681
        k(  989) = (   0.4166667  -0.2405626   0.0000000), wk =   0.0008681
        k(  990) = (   0.4166667  -0.2165064   0.0000000), wk =   0.0008681
[...]
        k( 2157) = (  -0.0833333  -0.0833333   0.0000000), wk =   0.0008681
        k( 2158) = (  -0.0833333  -0.0625000   0.0000000), wk =   0.0008681
        k( 2159) = (  -0.0833333  -0.0416667   0.0000000), wk =   0.0008681
        k( 2160) = (  -0.0833333  -0.0208333   0.0000000), wk =   0.0008681
        k( 2161) = (  -0.0625000   0.0000000   0.0000000), wk =   0.0008681
        k( 2162) = (  -0.0625000   0.0208333   0.0000000), wk =   0.0008681
        k( 2163) = (  -0.0625000   0.0416667   0.0000000), wk =   0.0008681
        k( 2164) = (  -0.0625000   0.0625000   0.0000000), wk =   0.0008681
        k( 2165) = (  -0.0625000   0.0833333   0.0000000), wk =   0.0008681
        k( 2166) = (  -0.0625000   0.1041667   0.0000000), wk =   0.0008681
        k( 2167) = (  -0.0625000   0.1250000   0.0000000), wk =   0.0008681
        k( 2168) = (  -0.0625000   0.1458333   0.0000000), wk =   0.0008681
        k( 2169) = (  -0.0625000   0.1666667   0.0000000), wk =   0.0008681
        k( 2170) = (  -0.0625000   0.1875000   0.0000000), wk =   0.0008681
        k( 2171) = (  -0.0625000   0.2083333   0.0000000), wk =   0.0008681
        k( 2172) = (  -0.0625000   0.2291667   0.0000000), wk =   0.0008681
        k( 2173) = (  -0.0625000   0.2500000   0.0000000), wk =   0.0008681
        k( 2174) = (  -0.0625000   0.2708333   0.0000000), wk =   0.0008681
        k( 2175) = (  -0.0625000   0.2916667   0.0000000), wk =   0.0008681
        k( 2176) = (  -0.0625000   0.3125000   0.0000000), wk =   0.0008681
        k( 2177) = (  -0.0625000   0.3333333   0.0000000), wk =   0.0008681
        k( 2178) = (  -0.0625000   0.3541667   0.0000000), wk =   0.0008681
        k( 2179) = (  -0.0625000   0.3750000   0.0000000), wk =   0.0008681
        k( 2180) = (  -0.0625000   0.3958333   0.0000000), wk =   0.0008681
        k( 2181) = (  -0.0625000   0.4166667   0.0000000), wk =   0.0008681
        k( 2182) = (  -0.0625000   0.4375000   0.0000000), wk =   0.0008681
        k( 2183) = (  -0.0625000   0.4583333   0.0000000), wk =   0.0008681
        k( 2184) = (  -0.0625000   0.4791667   0.0000000), wk =   0.0008681
        k( 2185) = (  -0.0625000  -0.5000000   0.0000000), wk =   0.0008681
        k( 2186) = (  -0.0625000  -0.4791667   0.0000000), wk =   0.0008681
        k( 2187) = (  -0.0625000  -0.4583333   0.0000000), wk =   0.0008681
        k( 2188) = (  -0.0625000  -0.4375000   0.0000000), wk =   0.0008681
        k( 2189) = (  -0.0625000  -0.4166667   0.0000000), wk =   0.0008681
        k( 2190) = (  -0.0625000  -0.3958333   0.0000000), wk =   0.0008681
        k( 2191) = (  -0.0625000  -0.3750000   0.0000000), wk =   0.0008681
        k( 2192) = (  -0.0625000  -0.3541667   0.0000000), wk =   0.0008681
        k( 2193) = (  -0.0625000  -0.3333333   0.0000000), wk =   0.0008681
        k( 2194) = (  -0.0625000  -0.3125000   0.0000000), wk =   0.0008681
        k( 2195) = (  -0.0625000  -0.2916667   0.0000000), wk =   0.0008681
        k( 2196) = (  -0.0625000  -0.2708333   0.0000000), wk =   0.0008681
        k( 2197) = (  -0.0625000  -0.2500000   0.0000000), wk =   0.0008681
        k( 2198) = (  -0.0625000  -0.2291667   0.0000000), wk =   0.0008681
        k( 2199) = (  -0.0625000  -0.2083333   0.0000000), wk =   0.0008681
        k( 2200) = (  -0.0625000  -0.1875000   0.0000000), wk =   0.0008681
        k( 2201) = (  -0.0625000  -0.1666667   0.0000000), wk =   0.0008681
        k( 2202) = (  -0.0625000  -0.1458333   0.0000000), wk =   0.0008681
        k( 2203) = (  -0.0625000  -0.1250000   0.0000000), wk =   0.0008681
        k( 2204) = (  -0.0625000  -0.1041667   0.0000000), wk =   0.0008681
        k( 2205) = (  -0.0625000  -0.0833333   0.0000000), wk =   0.0008681
        k( 2206) = (  -0.0625000  -0.0625000   0.0000000), wk =   0.0008681
        k( 2207) = (  -0.0625000  -0.0416667   0.0000000), wk =   0.0008681
        k( 2208) = (  -0.0625000  -0.0208333   0.0000000), wk =   0.0008681
        k( 2209) = (  -0.0416667   0.0000000   0.0000000), wk =   0.0008681
        k( 2210) = (  -0.0416667   0.0208333   0.0000000), wk =   0.0008681
        k( 2211) = (  -0.0416667   0.0416667   0.0000000), wk =   0.0008681
        k( 2212) = (  -0.0416667   0.0625000   0.0000000), wk =   0.0008681
        k( 2213) = (  -0.0416667   0.0833333   0.0000000), wk =   0.0008681
        k( 2214) = (  -0.0416667   0.1041667   0.0000000), wk =   0.0008681
        k( 2215) = (  -0.0416667   0.1250000   0.0000000), wk =   0.0008681
        k( 2216) = (  -0.0416667   0.1458333   0.0000000), wk =   0.0008681
        k( 2217) = (  -0.0416667   0.1666667   0.0000000), wk =   0.0008681
        k( 2218) = (  -0.0416667   0.1875000   0.0000000), wk =   0.0008681
        k( 2219) = (  -0.0416667   0.2083333   0.0000000), wk =   0.0008681
        k( 2220) = (  -0.0416667   0.2291667   0.0000000), wk =   0.0008681
        k( 2221) = (  -0.0416667   0.2500000   0.0000000), wk =   0.0008681
        k( 2222) = (  -0.0416667   0.2708333   0.0000000), wk =   0.0008681
        k( 2223) = (  -0.0416667   0.2916667   0.0000000), wk =   0.0008681
        k( 2224) = (  -0.0416667   0.3125000   0.0000000), wk =   0.0008681
        k( 2225) = (  -0.0416667   0.3333333   0.0000000), wk =   0.0008681
        k( 2226) = (  -0.0416667   0.3541667   0.0000000), wk =   0.0008681
        k( 2227) = (  -0.0416667   0.3750000   0.0000000), wk =   0.0008681
        k( 2228) = (  -0.0416667   0.3958333   0.0000000), wk =   0.0008681
        k( 2229) = (  -0.0416667   0.4166667   0.0000000), wk =   0.0008681
        k( 2230) = (  -0.0416667   0.4375000   0.0000000), wk =   0.0008681
        k( 2231) = (  -0.0416667   0.4583333   0.0000000), wk =   0.0008681
        k( 2232) = (  -0.0416667   0.4791667   0.0000000), wk =   0.0008681
        k( 2233) = (  -0.0416667  -0.5000000   0.0000000), wk =   0.0008681
        k( 2234) = (  -0.0416667  -0.4791667   0.0000000), wk =   0.0008681
        k( 2235) = (  -0.0416667  -0.4583333   0.0000000), wk =   0.0008681
        k( 2236) = (  -0.0416667  -0.4375000   0.0000000), wk =   0.0008681
        k( 2237) = (  -0.0416667  -0.4166667   0.0000000), wk =   0.0008681
        k( 2238) = (  -0.0416667  -0.3958333   0.0000000), wk =   0.0008681
        k( 2239) = (  -0.0416667  -0.3750000   0.0000000), wk =   0.0008681
        k( 2240) = (  -0.0416667  -0.3541667   0.0000000), wk =   0.0008681
        k( 2241) = (  -0.0416667  -0.3333333   0.0000000), wk =   0.0008681
        k( 2242) = (  -0.0416667  -0.3125000   0.0000000), wk =   0.0008681
        k( 2243) = (  -0.0416667  -0.2916667   0.0000000), wk =   0.0008681
        k( 2244) = (  -0.0416667  -0.2708333   0.0000000), wk =   0.0008681
        k( 2245) = (  -0.0416667  -0.2500000   0.0000000), wk =   0.0008681
        k( 2246) = (  -0.0416667  -0.2291667   0.0000000), wk =   0.0008681
        k( 2247) = (  -0.0416667  -0.2083333   0.0000000), wk =   0.0008681
        k( 2248) = (  -0.0416667  -0.1875000   0.0000000), wk =   0.0008681
        k( 2249) = (  -0.0416667  -0.1666667   0.0000000), wk =   0.0008681
        k( 2250) = (  -0.0416667  -0.1458333   0.0000000), wk =   0.0008681
        k( 2251) = (  -0.0416667  -0.1250000   0.0000000), wk =   0.0008681
        k( 2252) = (  -0.0416667  -0.1041667   0.0000000), wk =   0.0008681
        k( 2253) = (  -0.0416667  -0.0833333   0.0000000), wk =   0.0008681
        k( 2254) = (  -0.0416667  -0.0625000   0.0000000), wk =   0.0008681
        k( 2255) = (  -0.0416667  -0.0416667   0.0000000), wk =   0.0008681
        k( 2256) = (  -0.0416667  -0.0208333   0.0000000), wk =   0.0008681
        k( 2257) = (  -0.0208333   0.0000000   0.0000000), wk =   0.0008681
        k( 2258) = (  -0.0208333   0.0208333   0.0000000), wk =   0.0008681
        k( 2259) = (  -0.0208333   0.0416667   0.0000000), wk =   0.0008681
        k( 2260) = (  -0.0208333   0.0625000   0.0000000), wk =   0.0008681
        k( 2261) = (  -0.0208333   0.0833333   0.0000000), wk =   0.0008681
        k( 2262) = (  -0.0208333   0.1041667   0.0000000), wk =   0.0008681
        k( 2263) = (  -0.0208333   0.1250000   0.0000000), wk =   0.0008681
        k( 2264) = (  -0.0208333   0.1458333   0.0000000), wk =   0.0008681
        k( 2265) = (  -0.0208333   0.1666667   0.0000000), wk =   0.0008681
        k( 2266) = (  -0.0208333   0.1875000   0.0000000), wk =   0.0008681
        k( 2267) = (  -0.0208333   0.2083333   0.0000000), wk =   0.0008681
        k( 2268) = (  -0.0208333   0.2291667   0.0000000), wk =   0.0008681
        k( 2269) = (  -0.0208333   0.2500000   0.0000000), wk =   0.0008681
        k( 2270) = (  -0.0208333   0.2708333   0.0000000), wk =   0.0008681
        k( 2271) = (  -0.0208333   0.2916667   0.0000000), wk =   0.0008681
        k( 2272) = (  -0.0208333   0.3125000   0.0000000), wk =   0.0008681
        k( 2273) = (  -0.0208333   0.3333333   0.0000000), wk =   0.0008681
        k( 2274) = (  -0.0208333   0.3541667   0.0000000), wk =   0.0008681
        k( 2275) = (  -0.0208333   0.3750000   0.0000000), wk =   0.0008681
        k( 2276) = (  -0.0208333   0.3958333   0.0000000), wk =   0.0008681
        k( 2277) = (  -0.0208333   0.4166667   0.0000000), wk =   0.0008681
        k( 2278) = (  -0.0208333   0.4375000   0.0000000), wk =   0.0008681
        k( 2279) = (  -0.0208333   0.4583333   0.0000000), wk =   0.0008681
        k( 2280) = (  -0.0208333   0.4791667   0.0000000), wk =   0.0008681
        k( 2281) = (  -0.0208333  -0.5000000   0.0000000), wk =   0.0008681
        k( 2282) = (  -0.0208333  -0.4791667   0.0000000), wk =   0.0008681
        k( 2283) = (  -0.0208333  -0.4583333   0.0000000), wk =   0.0008681
        k( 2284) = (  -0.0208333  -0.4375000   0.0000000), wk =   0.0008681
        k( 2285) = (  -0.0208333  -0.4166667   0.0000000), wk =   0.0008681
        k( 2286) = (  -0.0208333  -0.3958333   0.0000000), wk =   0.0008681
        k( 2287) = (  -0.0208333  -0.3750000   0.0000000), wk =   0.0008681
        k( 2288) = (  -0.0208333  -0.3541667   0.0000000), wk =   0.0008681
        k( 2289) = (  -0.0208333  -0.3333333   0.0000000), wk =   0.0008681
        k( 2290) = (  -0.0208333  -0.3125000   0.0000000), wk =   0.0008681
        k( 2291) = (  -0.0208333  -0.2916667   0.0000000), wk =   0.0008681
        k( 2292) = (  -0.0208333  -0.2708333   0.0000000), wk =   0.0008681
        k( 2293) = (  -0.0208333  -0.2500000   0.0000000), wk =   0.0008681
        k( 2294) = (  -0.0208333  -0.2291667   0.0000000), wk =   0.0008681
        k( 2295) = (  -0.0208333  -0.2083333   0.0000000), wk =   0.0008681
        k( 2296) = (  -0.0208333  -0.1875000   0.0000000), wk =   0.0008681
        k( 2297) = (  -0.0208333  -0.1666667   0.0000000), wk =   0.0008681
        k( 2298) = (  -0.0208333  -0.1458333   0.0000000), wk =   0.0008681
        k( 2299) = (  -0.0208333  -0.1250000   0.0000000), wk =   0.0008681
        k( 2300) = (  -0.0208333  -0.1041667   0.0000000), wk =   0.0008681
        k( 2301) = (  -0.0208333  -0.0833333   0.0000000), wk =   0.0008681
        k( 2302) = (  -0.0208333  -0.0625000   0.0000000), wk =   0.0008681
        k( 2303) = (  -0.0208333  -0.0416667   0.0000000), wk =   0.0008681
        k( 2304) = (  -0.0208333  -0.0208333   0.0000000), wk =   0.0008681

     PseudoPot. # 1 for Mo read from file:
     ./Mo.pz-hgh.UPF
     MD5 check sum: 510e36645586a760ed3cd5614e91e830
     Pseudo is Norm-conserving, Zval =  6.0
     Generated in analytical, separable form
     Using radial grid of 1229 points,  6 beta functions with: 
                l(1) =   0
                l(2) =   0
                l(3) =   1
                l(4) =   1
                l(5) =   2
                l(6) =   2

     PseudoPot. # 2 for S  read from file:
     ./S.pz-hgh.UPF
     MD5 check sum: fdda2a7ddb80a5bdde23f0593523f925
     Pseudo is Norm-conserving, Zval =  6.0
     Generated in analytical, separable form
     Using radial grid of 1151 points,  3 beta functions with: 
                l(1) =   0
                l(2) =   0
                l(3) =   1

     point group C_1 (1)    
     there are  1 classes
     the character table:

       E    
A      1.00

     the symmetry operations in each class and the name of the first element:

     E        1
                                                                 


     Atomic displacements:
     There are    9 irreducible representations

     Representation     1      1 modes -  To be done
     Irreps are as follows:

                     mode #   1
                     (   1.00000   0.00000   ) 
                     (   0.00000   0.00000   ) 
                     (   0.00000   0.00000   ) 
                     (   0.00000   0.00000   ) 
                     (   0.00000   0.00000   ) 
                     (   0.00000   0.00000   ) 
                     (   0.00000   0.00000   ) 
                     (   0.00000   0.00000   ) 
                     (   0.00000   0.00000   ) 

     Representation     2      1 modes -  To be done
     Irreps are as follows:

                     mode #   2
                     (   0.00000   0.00000   ) 
                     (   1.00000   0.00000   ) 
                     (   0.00000   0.00000   ) 
                     (   0.00000   0.00000   ) 
                     (   0.00000   0.00000   ) 
                     (   0.00000   0.00000   ) 
                     (   0.00000   0.00000   ) 
                     (   0.00000   0.00000   ) 
                     (   0.00000   0.00000   ) 

     Representation     3      1 modes -  To be done
     Irreps are as follows:

                     mode #   3
                     (   0.00000   0.00000   ) 
                     (   0.00000   0.00000   ) 
                     (   1.00000   0.00000   ) 
                     (   0.00000   0.00000   ) 
                     (   0.00000   0.00000   ) 
                     (   0.00000   0.00000   ) 
                     (   0.00000   0.00000   ) 
                     (   0.00000   0.00000   ) 
                     (   0.00000   0.00000   ) 

     Representation     4      1 modes -  To be done
     Irreps are as follows:

                     mode #   4
                     (   0.00000   0.00000   ) 
                     (   0.00000   0.00000   ) 
                     (   0.00000   0.00000   ) 
                     (   1.00000   0.00000   ) 
                     (   0.00000   0.00000   ) 
                     (   0.00000   0.00000   ) 
                     (   0.00000   0.00000   ) 
                     (   0.00000   0.00000   ) 
                     (   0.00000   0.00000   ) 

     Representation     5      1 modes -  To be done
     Irreps are as follows:

                     mode #   5
                     (   0.00000   0.00000   ) 
                     (   0.00000   0.00000   ) 
                     (   0.00000   0.00000   ) 
                     (   0.00000   0.00000   ) 
                     (   1.00000   0.00000   ) 
                     (   0.00000   0.00000   ) 
                     (   0.00000   0.00000   ) 
                     (   0.00000   0.00000   ) 
                     (   0.00000   0.00000   ) 

     Representation     6      1 modes -  To be done
     Irreps are as follows:

                     mode #   6
                     (   0.00000   0.00000   ) 
                     (   0.00000   0.00000   ) 
                     (   0.00000   0.00000   ) 
                     (   0.00000   0.00000   ) 
                     (   0.00000   0.00000   ) 
                     (   1.00000   0.00000   ) 
                     (   0.00000   0.00000   ) 
                     (   0.00000   0.00000   ) 
                     (   0.00000   0.00000   ) 

     Representation     7      1 modes -  To be done
     Irreps are as follows:

                     mode #   7
                     (   0.00000   0.00000   ) 
                     (   0.00000   0.00000   ) 
                     (   0.00000   0.00000   ) 
                     (   0.00000   0.00000   ) 
                     (   0.00000   0.00000   ) 
                     (   0.00000   0.00000   ) 
                     (   1.00000   0.00000   ) 
                     (   0.00000   0.00000   ) 
                     (   0.00000   0.00000   ) 

     Representation     8      1 modes -  To be done
     Irreps are as follows:

                     mode #   8
                     (   0.00000   0.00000   ) 
                     (   0.00000   0.00000   ) 
                     (   0.00000   0.00000   ) 
                     (   0.00000   0.00000   ) 
                     (   0.00000   0.00000   ) 
                     (   0.00000   0.00000   ) 
                     (   0.00000   0.00000   ) 
                     (   1.00000   0.00000   ) 
                     (   0.00000   0.00000   ) 

     Representation     9      1 modes -  To be done
     Irreps are as follows:

                     mode #   9
                     (   0.00000   0.00000   ) 
                     (   0.00000   0.00000   ) 
                     (   0.00000   0.00000   ) 
                     (   0.00000   0.00000   ) 
                     (   0.00000   0.00000   ) 
                     (   0.00000   0.00000   ) 
                     (   0.00000   0.00000   ) 
                     (   0.00000   0.00000   ) 
                     (   1.00000   0.00000   ) 


     PHONON       :     18.52s CPU     21.39s WALL

     Reading dVscf from file dvscf
     Reading dynamics matrix from file mos2.dyn

     Diagonalizing the dynamical matrix

     q = (    0.000000000   0.000000000   0.000000000 ) 

 **************************************************************************
     freq (    1) =      -0.006513 [THz] =      -0.217252 [cm-1]
     freq (    2) =       0.129058 [THz] =       4.304924 [cm-1]
     freq (    3) =       0.231384 [THz] =       7.718155 [cm-1]
     freq (    4) =       8.468526 [THz] =     282.479619 [cm-1]
     freq (    5) =       8.470235 [THz] =     282.536632 [cm-1]
     freq (    6) =      11.485505 [THz] =     383.115195 [cm-1]
     freq (    7) =      11.487930 [THz] =     383.196086 [cm-1]
     freq (    8) =      12.083507 [THz] =     403.062423 [cm-1]
     freq (    9) =      13.898127 [THz] =     463.591612 [cm-1]
 **************************************************************************
 
     PHONON       :   5m14.95s CPU   5m27.61s WALL

     INITIALIZATION: 
     phq_setup    :      0.00s CPU      0.00s WALL (       1 calls)
     phq_init     :      1.47s CPU      1.55s WALL (       1 calls)
 
     phq_init     :      1.47s CPU      1.55s WALL (       1 calls)
     init_vloc    :      0.00s CPU      0.00s WALL (       1 calls)
     init_us_1    :      0.00s CPU      0.00s WALL (       1 calls)
     init_us_2    :      4.96s CPU      5.07s WALL (   23040 calls)
     com_dvloc    :      7.74s CPU      8.32s WALL (   20736 calls)
                                        0.00s GPU  (   20736 calls)
 
     dvqpsi_us    :    141.61s CPU    144.08s WALL (   20736 calls)
                                        0.00s GPU  (   20736 calls)
     dvqpsi_us_on :      6.95s CPU      7.01s WALL (   20736 calls)
 
 
 
      Electron-phonon coupling
     elphon       :    283.29s CPU    289.93s WALL (       1 calls)
     elphel       :    283.28s CPU    289.88s WALL (       9 calls)
 
      General routines
     calbec       :      0.79s CPU      0.84s WALL (    9216 calls)
     fft          :      0.01s CPU      0.01s WALL (       3 calls)
     ffts         :      6.26s CPU      6.73s WALL (   20736 calls)
     fftw         :    226.13s CPU    229.11s WALL ( 1244160 calls)
     davcio       :      1.40s CPU      1.63s WALL (   25353 calls)
 
      Additional routines
 
 
     PHONON       :   5m14.95s CPU   5m27.61s WALL

 
   This run was terminated on:   0:39:46   2Feb2026            

=------------------------------------------------------------------------------=
   JOB DONE.
=------------------------------------------------------------------------------=
