
     Program BANDS v.7.5 starts on  1Feb2026 at 14:11:37 

     This program is part of the open-source Quantum ESPRESSO suite
     for quantum simulation of materials; please cite
         "P. Giannozzi et al., J. Phys.:Condens. Matter 21 395502 (2009);
         "P. Giannozzi et al., J. Phys.:Condens. Matter 29 465901 (2017);
         "P. Giannozzi et al., J. Chem. Phys. 152 154105 (2020);
          URL http://www.quantum-espresso.org", 
     in publications or presentations arising from this work. More details at
     http://www.quantum-espresso.org/quote

     Parallel version (MPI), running on    48 processors

     MPI processes distributed on     1 nodes
     R & G space division:  proc/nbgrp/npool/nimage =      48
     333523 MiB available memory on the printing compute node when the environment starts
 

     Reading xml data from directory:

     ./tmp/mos2.save/

     IMPORTANT: XC functional enforced from input :
     Exchange-correlation= PZ
                           (   1   1   0   0   0   0   0)
     Any further DFT definition will be discarded
     Please, verify this is what you really want

 
     Parallelization info
     --------------------
     sticks:   dense  smooth     PW     G-vecs:    dense   smooth      PW
     Min          24      24      7                 5318     5318     861
     Max          25      25      8                 5359     5359     896
     Sum        1159    1159    349               255923   255923   42169
 
     Using Slab Decomposition
 
 ----2D----2D----2D----2D----2D----2D----2D----2D----2D----2D----2D----2D
  The code is running with the 2D cutoff
  Please refer to:
  Sohier, T., Calandra, M., & Mauri, F. (2017), 
  Density functional perturbation theory for gated two-dimensional heterostructu
 res:
  Theoretical developments and application to flexural phonons in graphene.
  Physical Review B, 96(7), 75448. https://doi.org/10.1103/PhysRevB.96.075448
 ----2D----2D----2D----2D----2D----2D----2D----2D----2D----2D----2D----2D
     Reading collected, re-writing distributed wavefunctions
     high-symmetry point:  0.0000 0.0000 0.0000   x coordinate   0.0000
     high-symmetry point:  0.0000 0.5533 0.0000   x coordinate   0.5533
     high-symmetry point:  0.0000-0.5774 0.0000   x coordinate   0.5533
     high-symmetry point:  0.0000-0.0241 0.0000   x coordinate   1.1066
     high-symmetry point:  0.0208 0.0120 0.0000   x coordinate   1.1483
     high-symmetry point:  0.0208 0.5653 0.0000   x coordinate   1.7015
     high-symmetry point:  0.0208-0.5653 0.0000   x coordinate   1.7015
     high-symmetry point:  0.0208-0.0120 0.0000   x coordinate   2.2548
     high-symmetry point:  0.0417 0.0241 0.0000   x coordinate   2.2965
     high-symmetry point:  0.0417 0.5774 0.0000   x coordinate   2.8498
     high-symmetry point:  0.0417-0.5533 0.0000   x coordinate   2.8498
     high-symmetry point:  0.0417-0.0000 0.0000   x coordinate   3.4031
     high-symmetry point:  0.0625 0.0361 0.0000   x coordinate   3.4448
     high-symmetry point:  0.0625 0.5894 0.0000   x coordinate   3.9981
     high-symmetry point:  0.0625-0.5413 0.0000   x coordinate   3.9981
     high-symmetry point:  0.0625 0.0120 0.0000   x coordinate   4.5514
     high-symmetry point:  0.0833 0.0481 0.0000   x coordinate   4.5930
     high-symmetry point:  0.0833 0.6014 0.0000   x coordinate   5.1463
     high-symmetry point:  0.0833-0.5292 0.0000   x coordinate   5.1463
     high-symmetry point:  0.0833 0.0241 0.0000   x coordinate   5.6996
     high-symmetry point:  0.1042 0.0601 0.0000   x coordinate   5.7413
     high-symmetry point:  0.1042 0.6134 0.0000   x coordinate   6.2946
     high-symmetry point:  0.1042-0.5172 0.0000   x coordinate   6.2946
     high-symmetry point:  0.1042 0.0361 0.0000   x coordinate   6.8479
     high-symmetry point:  0.1250 0.0722 0.0000   x coordinate   6.8895
     high-symmetry point:  0.1250 0.6255 0.0000   x coordinate   7.4428
     high-symmetry point:  0.1250-0.5052 0.0000   x coordinate   7.4428
     high-symmetry point:  0.1250 0.0481 0.0000   x coordinate   7.9961
     high-symmetry point:  0.1458 0.0842 0.0000   x coordinate   8.0378
     high-symmetry point:  0.1458 0.6375 0.0000   x coordinate   8.5911
     high-symmetry point:  0.1458-0.4932 0.0000   x coordinate   8.5911
     high-symmetry point:  0.1458 0.0601 0.0000   x coordinate   9.1444
     high-symmetry point:  0.1667 0.0962 0.0000   x coordinate   9.1860
     high-symmetry point:  0.1667 0.6495 0.0000   x coordinate   9.7393
     high-symmetry point:  0.1667-0.4811 0.0000   x coordinate   9.7393
     high-symmetry point:  0.1667 0.0722 0.0000   x coordinate  10.2926
     high-symmetry point:  0.1875 0.1083 0.0000   x coordinate  10.3343
     high-symmetry point:  0.1875 0.6615 0.0000   x coordinate  10.8876
     high-symmetry point:  0.1875-0.4691 0.0000   x coordinate  10.8876
     high-symmetry point:  0.1875 0.0842 0.0000   x coordinate  11.4409
     high-symmetry point:  0.2083 0.1203 0.0000   x coordinate  11.4825
     high-symmetry point:  0.2083 0.6736 0.0000   x coordinate  12.0358
     high-symmetry point:  0.2083-0.4571 0.0000   x coordinate  12.0358
     high-symmetry point:  0.2083 0.0962 0.0000   x coordinate  12.5891
     high-symmetry point:  0.2292 0.1323 0.0000   x coordinate  12.6308
     high-symmetry point:  0.2292 0.6856 0.0000   x coordinate  13.1841
     high-symmetry point:  0.2292-0.4450 0.0000   x coordinate  13.1841
     high-symmetry point:  0.2292 0.1083 0.0000   x coordinate  13.7374
     high-symmetry point:  0.2500 0.1443 0.0000   x coordinate  13.7791
     high-symmetry point:  0.2500 0.6976 0.0000   x coordinate  14.3324
     high-symmetry point:  0.2500-0.4330 0.0000   x coordinate  14.3324
     high-symmetry point:  0.2500 0.1203 0.0000   x coordinate  14.8856
     high-symmetry point:  0.2708 0.1564 0.0000   x coordinate  14.9273
     high-symmetry point:  0.2708 0.7097 0.0000   x coordinate  15.4806
     high-symmetry point:  0.2708-0.4210 0.0000   x coordinate  15.4806
     high-symmetry point:  0.2708 0.1323 0.0000   x coordinate  16.0339
     high-symmetry point:  0.2917 0.1684 0.0000   x coordinate  16.0756
     high-symmetry point:  0.2917 0.7217 0.0000   x coordinate  16.6289
     high-symmetry point:  0.2917-0.4090 0.0000   x coordinate  16.6289
     high-symmetry point:  0.2917 0.1443 0.0000   x coordinate  17.1822
     high-symmetry point:  0.3125 0.1804 0.0000   x coordinate  17.2238
     high-symmetry point:  0.3125 0.7337 0.0000   x coordinate  17.7771
     high-symmetry point:  0.3125-0.3969 0.0000   x coordinate  17.7771
     high-symmetry point:  0.3125 0.1564 0.0000   x coordinate  18.3304
     high-symmetry point:  0.3333 0.1925 0.0000   x coordinate  18.3721
     high-symmetry point:  0.3333 0.7457 0.0000   x coordinate  18.9254
     high-symmetry point:  0.3333-0.3849 0.0000   x coordinate  18.9254
     high-symmetry point:  0.3333 0.1684 0.0000   x coordinate  19.4787
     high-symmetry point:  0.3542 0.2045 0.0000   x coordinate  19.5203
     high-symmetry point:  0.3542 0.7578 0.0000   x coordinate  20.0736
     high-symmetry point:  0.3542-0.3729 0.0000   x coordinate  20.0736
     high-symmetry point:  0.3542 0.1804 0.0000   x coordinate  20.6269
     high-symmetry point:  0.3750 0.2165 0.0000   x coordinate  20.6686
     high-symmetry point:  0.3750 0.7698 0.0000   x coordinate  21.2219
     high-symmetry point:  0.3750-0.3608 0.0000   x coordinate  21.2219
     high-symmetry point:  0.3750 0.1925 0.0000   x coordinate  21.7752
     high-symmetry point:  0.3958 0.2285 0.0000   x coordinate  21.8168
     high-symmetry point:  0.3958 0.7818 0.0000   x coordinate  22.3701
     high-symmetry point:  0.3958-0.3488 0.0000   x coordinate  22.3701
     high-symmetry point:  0.3958 0.2045 0.0000   x coordinate  22.9234
     high-symmetry point:  0.4167 0.2406 0.0000   x coordinate  22.9651
     high-symmetry point:  0.4167 0.7939 0.0000   x coordinate  23.5184
     high-symmetry point:  0.4167-0.3368 0.0000   x coordinate  23.5184
     high-symmetry point:  0.4167 0.2165 0.0000   x coordinate  24.0717
     high-symmetry point:  0.4375 0.2526 0.0000   x coordinate  24.1133
     high-symmetry point:  0.4375 0.8059 0.0000   x coordinate  24.6666
     high-symmetry point:  0.4375-0.3248 0.0000   x coordinate  24.6666
     high-symmetry point:  0.4375 0.2285 0.0000   x coordinate  25.2199
     high-symmetry point:  0.4583 0.2646 0.0000   x coordinate  25.2616
     high-symmetry point:  0.4583 0.8179 0.0000   x coordinate  25.8149
     high-symmetry point:  0.4583-0.3127 0.0000   x coordinate  25.8149
     high-symmetry point:  0.4583 0.2406 0.0000   x coordinate  26.3682
     high-symmetry point:  0.4792 0.2766 0.0000   x coordinate  26.4099
     high-symmetry point:  0.4792 0.8299 0.0000   x coordinate  26.9632
     high-symmetry point:  0.4792-0.3007 0.0000   x coordinate  26.9632
     high-symmetry point:  0.4792 0.2526 0.0000   x coordinate  27.5164
     high-symmetry point: -0.5000-0.2887 0.0000   x coordinate  27.5164
     high-symmetry point: -0.5000 0.2646 0.0000   x coordinate  28.0697
     high-symmetry point: -0.5000-0.8660 0.0000   x coordinate  28.0697
     high-symmetry point: -0.5000-0.3127 0.0000   x coordinate  28.6230
     Message from routine punch_plottable_bands:
     too many lines, exiting
     Bands written to file mos2.bands

 **************************************************************************

                    xk=(   0.00000,   0.00000,   0.00000  )

     point group C_1 (1)    
     there are  1 classes
     the character table:

       E    
A      1.00

     the symmetry operations in each class and the name of the first element:

     E        1
                                                                 

     Band symmetry, C_1 (1)     point group:

     e(  1 -  1) =    -20.41149  eV     1   --> A              
     e(  2 -  2) =    -19.12441  eV     1   --> A              
     e(  3 -  3) =    -11.91925  eV     1   --> A              
     e(  4 -  5) =     -8.78662  eV     2   -->   2 A              
     e(  6 -  6) =     -7.98629  eV     1   --> A              
     e(  7 -  8) =     -7.58291  eV     2   -->   2 A              
     e(  9 -  9) =     -6.28580  eV     1   --> A              
     e( 10 - 11) =     -3.13655  eV     2   -->   2 A              
     e( 12 - 13) =     -2.93933  eV     2   -->   2 A              
     e( 14 - 14) =     -0.55272  eV     1   --> A              
     e( 15 - 15) =     -0.35436  eV     1   --> A              

 **************************************************************************

 **************************************************************************

                    xk=(   0.00000,   0.02406,   0.00000  )

     Band symmetry, C_1 (1)     point group:

     e(  1 -  1) =    -20.40481  eV     1   --> A              
     e(  2 -  2) =    -19.12103  eV     1   --> A              
     e(  3 -  3) =    -11.91140  eV     1   --> A              
     e(  4 -  4) =     -8.80202  eV     1   --> A              
     e(  5 -  5) =     -8.77916  eV     1   --> A              
     e(  6 -  6) =     -8.03642  eV     1   --> A              
     e(  7 -  7) =     -7.59446  eV     1   --> A              
     e(  8 -  8) =     -7.54220  eV     1   --> A              
     e(  9 -  9) =     -6.28772  eV     1   --> A              
     e( 10 - 10) =     -3.15001  eV     1   --> A              
     e( 11 - 11) =     -3.12420  eV     1   --> A              
     e( 12 - 12) =     -2.96341  eV     1   --> A              
     e( 13 - 13) =     -2.94749  eV     1   --> A              
     e( 14 - 14) =     -0.53804  eV     1   --> A              
     e( 15 - 15) =     -0.34547  eV     1   --> A              

 **************************************************************************

 **************************************************************************

                    xk=(   0.00000,   0.04811,   0.00000  )

     Band symmetry, C_1 (1)     point group:

     e(  1 -  1) =    -20.38482  eV     1   --> A              
     e(  2 -  2) =    -19.11090  eV     1   --> A              
     e(  3 -  3) =    -11.88804  eV     1   --> A              
     e(  4 -  4) =     -8.84746  eV     1   --> A              
     e(  5 -  5) =     -8.75686  eV     1   --> A              
     e(  6 -  6) =     -8.15108  eV     1   --> A              
     e(  7 -  7) =     -7.62849  eV     1   --> A              
     e(  8 -  8) =     -7.45640  eV     1   --> A              
     e(  9 -  9) =     -6.29390  eV     1   --> A              
     e( 10 - 10) =     -3.18774  eV     1   --> A              
     e( 11 - 11) =     -3.08789  eV     1   --> A              
     e( 12 - 12) =     -3.03218  eV     1   --> A              
     e( 13 - 13) =     -2.97154  eV     1   --> A              
     e( 14 - 14) =     -0.49658  eV     1   --> A              
     e( 15 - 15) =     -0.31888  eV     1   --> A              

 **************************************************************************

 **************************************************************************

                    xk=(   0.00000,   0.07217,   0.00000  )

     Band symmetry, C_1 (1)     point group:

     e(  1 -  1) =    -20.35169  eV     1   --> A              
     e(  2 -  2) =    -19.09412  eV     1   --> A              
     e(  3 -  3) =    -11.84975  eV     1   --> A              
     e(  4 -  4) =     -8.92066  eV     1   --> A              
     e(  5 -  5) =     -8.71999  eV     1   --> A              
     e(  6 -  6) =     -8.29223  eV     1   --> A              
     e(  7 -  7) =     -7.68322  eV     1   --> A              
     e(  8 -  8) =     -7.36532  eV     1   --> A              
     e(  9 -  9) =     -6.30556  eV     1   --> A              
     e( 10 - 10) =     -3.24242  eV     1   --> A              
     e( 11 - 11) =     -3.13658  eV     1   --> A              
     e( 12 - 12) =     -3.02969  eV     1   --> A              
     e( 13 - 13) =     -3.01029  eV     1   --> A              
     e( 14 - 14) =     -0.43326  eV     1   --> A              
     e( 15 - 15) =     -0.27488  eV     1   --> A              

 **************************************************************************

 **************************************************************************

                    xk=(   0.00000,   0.09623,   0.00000  )

     Band symmetry, C_1 (1)     point group:

     e(  1 -  1) =    -20.30569  eV     1   --> A              
     e(  2 -  2) =    -19.07083  eV     1   --> A              
     e(  3 -  3) =    -11.79751  eV     1   --> A              
     e(  4 -  4) =     -9.01816  eV     1   --> A              
     e(  5 -  5) =     -8.66903  eV     1   --> A              
     e(  6 -  6) =     -8.44549  eV     1   --> A              
     e(  7 -  7) =     -7.75602  eV     1   --> A              
     e(  8 -  8) =     -7.28596  eV     1   --> A              
     e(  9 -  9) =     -6.32470  eV     1   --> A              
     e( 10 - 10) =     -3.30363  eV     1   --> A              
     e( 11 - 11) =     -3.26475  eV     1   --> A              
     e( 12 - 12) =     -3.06188  eV     1   --> A              
     e( 13 - 13) =     -2.95274  eV     1   --> A              
     e( 14 - 14) =     -0.35346  eV     1   --> A              
     e( 15 - 15) =     -0.21383  eV     1   --> A              

 **************************************************************************

 **************************************************************************

                    xk=(   0.00000,   0.12028,   0.00000  )

     Band symmetry, C_1 (1)     point group:

     e(  1 -  1) =    -20.24721  eV     1   --> A              
     e(  2 -  2) =    -19.04126  eV     1   --> A              
     e(  3 -  3) =    -11.73285  eV     1   --> A              
     e(  4 -  4) =     -9.13552  eV     1   --> A              
     e(  5 -  5) =     -8.60544  eV     1   --> A              
     e(  6 -  6) =     -8.60461  eV     1   --> A              
     e(  7 -  7) =     -7.84375  eV     1   --> A              
     e(  8 -  8) =     -7.22669  eV     1   --> A              
     e(  9 -  9) =     -6.35396  eV     1   --> A              
     e( 10 - 10) =     -3.40424  eV     1   --> A              
     e( 11 - 11) =     -3.35991  eV     1   --> A              
     e( 12 - 12) =     -3.12397  eV     1   --> A              
     e( 13 - 13) =     -2.86082  eV     1   --> A              
     e( 14 - 14) =     -0.26090  eV     1   --> A              
     e( 15 - 15) =     -0.13614  eV     1   --> A              

 **************************************************************************

 **************************************************************************

                    xk=(   0.00000,   0.14434,   0.00000  )

     Band symmetry, C_1 (1)     point group:

     e(  1 -  1) =    -20.17678  eV     1   --> A              
     e(  2 -  2) =    -19.00568  eV     1   --> A              
     e(  3 -  3) =    -11.65796  eV     1   --> A              
     e(  4 -  4) =     -9.26766  eV     1   --> A              
     e(  5 -  5) =     -8.76967  eV     1   --> A              
     e(  6 -  6) =     -8.52760  eV     1   --> A              
     e(  7 -  7) =     -7.94308  eV     1   --> A              
     e(  8 -  8) =     -7.19239  eV     1   --> A              
     e(  9 -  9) =     -6.39629  eV     1   --> A              
     e( 10 - 10) =     -3.54329  eV     1   --> A              
     e( 11 - 11) =     -3.40063  eV     1   --> A              
     e( 12 - 12) =     -3.19391  eV     1   --> A              
     e( 13 - 13) =     -2.75800  eV     1   --> A              
     e( 14 - 14) =     -0.15756  eV     1   --> A              
     e( 15 - 15) =     -0.04229  eV     1   --> A              

 **************************************************************************

 **************************************************************************

                    xk=(   0.00000,   0.16839,   0.00000  )

     Band symmetry, C_1 (1)     point group:

     e(  1 -  1) =    -20.09501  eV     1   --> A              
     e(  2 -  2) =    -18.96444  eV     1   --> A              
     e(  3 -  3) =    -11.57593  eV     1   --> A              
     e(  4 -  4) =     -9.40899  eV     1   --> A              
     e(  5 -  5) =     -8.93695  eV     1   --> A              
     e(  6 -  6) =     -8.43907  eV     1   --> A              
     e(  7 -  7) =     -8.05078  eV     1   --> A              
     e(  8 -  8) =     -7.18537  eV     1   --> A              
     e(  9 -  9) =     -6.45442  eV     1   --> A              
     e( 10 - 10) =     -3.67145  eV     1   --> A              
     e( 11 - 11) =     -3.41754  eV     1   --> A              
     e( 12 - 12) =     -3.26892  eV     1   --> A              
     e( 13 - 13) =     -2.64830  eV     1   --> A              
     e( 14 - 14) =     -0.04439  eV     1   --> A              
     e( 15 - 15) =      0.06721  eV     1   --> A              

 **************************************************************************

 **************************************************************************

                    xk=(   0.00000,   0.19245,   0.00000  )

     Band symmetry, C_1 (1)     point group:

     e(  1 -  1) =    -20.00268  eV     1   --> A              
     e(  2 -  2) =    -18.91797  eV     1   --> A              
     e(  3 -  3) =    -11.49107  eV     1   --> A              
     e(  4 -  4) =     -9.55340  eV     1   --> A              
     e(  5 -  5) =     -9.10658  eV     1   --> A              
     e(  6 -  6) =     -8.34030  eV     1   --> A              
     e(  7 -  7) =     -8.16384  eV     1   --> A              
     e(  8 -  8) =     -7.20529  eV     1   --> A              
     e(  9 -  9) =     -6.52994  eV     1   --> A              
     e( 10 - 10) =     -3.78015  eV     1   --> A              
     e( 11 - 11) =     -3.40583  eV     1   --> A              
     e( 12 - 12) =     -3.34621  eV     1   --> A              
     e( 13 - 13) =     -2.53549  eV     1   --> A              
     e( 14 - 14) =      0.07806  eV     1   --> A              
     e( 15 - 15) =      0.19163  eV     1   --> A              

 **************************************************************************

 **************************************************************************

                    xk=(   0.00000,   0.21651,   0.00000  )

     Band symmetry, C_1 (1)     point group:

     e(  1 -  1) =    -19.90069  eV     1   --> A              
     e(  2 -  2) =    -18.86677  eV     1   --> A              
     e(  3 -  3) =    -11.40934  eV     1   --> A              
     e(  4 -  4) =     -9.69407  eV     1   --> A              
     e(  5 -  5) =     -9.27804  eV     1   --> A              
     e(  6 -  6) =     -8.27958  eV     1   --> A              
     e(  7 -  7) =     -8.23284  eV     1   --> A              
     e(  8 -  8) =     -7.24921  eV     1   --> A              
     e(  9 -  9) =     -6.62234  eV     1   --> A              
     e( 10 - 10) =     -3.86338  eV     1   --> A              
     e( 11 - 11) =     -3.42310  eV     1   --> A              
     e( 12 - 12) =     -3.36428  eV     1   --> A              
     e( 13 - 13) =     -2.42291  eV     1   --> A              
     e( 14 - 14) =      0.20919  eV     1   --> A              
     e( 15 - 15) =      0.33012  eV     1   --> A              

 **************************************************************************

 **************************************************************************

                    xk=(   0.00000,   0.24056,   0.00000  )

     Band symmetry, C_1 (1)     point group:

     e(  1 -  1) =    -19.79011  eV     1   --> A              
     e(  2 -  2) =    -18.81145  eV     1   --> A              
     e(  3 -  3) =    -11.33879  eV     1   --> A              
     e(  4 -  4) =     -9.82322  eV     1   --> A              
     e(  5 -  5) =     -9.45080  eV     1   --> A              
     e(  6 -  6) =     -8.39567  eV     1   --> A              
     e(  7 -  7) =     -8.11845  eV     1   --> A              
     e(  8 -  8) =     -7.31225  eV     1   --> A              
     e(  9 -  9) =     -6.72830  eV     1   --> A              
     e( 10 - 10) =     -3.91813  eV     1   --> A              
     e( 11 - 11) =     -3.49710  eV     1   --> A              
     e( 12 - 12) =     -3.29478  eV     1   --> A              
     e( 13 - 13) =     -2.31341  eV     1   --> A              
     e( 14 - 14) =      0.34813  eV     1   --> A              
     e( 15 - 15) =      0.48151  eV     1   --> A              

 **************************************************************************

 **************************************************************************

                    xk=(   0.00000,   0.26462,   0.00000  )

     Band symmetry, C_1 (1)     point group:

     e(  1 -  1) =    -19.67217  eV     1   --> A              
     e(  2 -  2) =    -18.75269  eV     1   --> A              
     e(  3 -  3) =    -11.28942  eV     1   --> A              
     e(  4 -  4) =     -9.93234  eV     1   --> A              
     e(  5 -  5) =     -9.62416  eV     1   --> A              
     e(  6 -  6) =     -8.51010  eV     1   --> A              
     e(  7 -  7) =     -7.99914  eV     1   --> A              
     e(  8 -  8) =     -7.38857  eV     1   --> A              
     e(  9 -  9) =     -6.84158  eV     1   --> A              
     e( 10 - 10) =     -3.94422  eV     1   --> A              
     e( 11 - 11) =     -3.56591  eV     1   --> A              
     e( 12 - 12) =     -3.20141  eV     1   --> A              
     e( 13 - 13) =     -2.20930  eV     1   --> A              
     e( 14 - 14) =      0.49351  eV     1   --> A              
     e( 15 - 15) =      0.64419  eV     1   --> A              

 **************************************************************************

 **************************************************************************

                    xk=(   0.00000,   0.28868,   0.00000  )

     Band symmetry, C_1 (1)     point group:

     e(  1 -  1) =    -19.54829  eV     1   --> A              
     e(  2 -  2) =    -18.69127  eV     1   --> A              
     e(  3 -  3) =    -11.27150  eV     1   --> A              
     e(  4 -  4) =    -10.01392  eV     1   --> A              
     e(  5 -  5) =     -9.79710  eV     1   --> A              
     e(  6 -  6) =     -8.62117  eV     1   --> A              
     e(  7 -  7) =     -7.87713  eV     1   --> A              
     e(  8 -  8) =     -7.47232  eV     1   --> A              
     e(  9 -  9) =     -6.95366  eV     1   --> A              
     e( 10 - 10) =     -3.94368  eV     1   --> A              
     e( 11 - 11) =     -3.62752  eV     1   --> A              
     e( 12 - 12) =     -3.08939  eV     1   --> A              
     e( 13 - 13) =     -2.11231  eV     1   --> A              
     e( 14 - 14) =      0.64335  eV     1   --> A              
     e( 15 - 15) =      0.81576  eV     1   --> A              

 **************************************************************************

 **************************************************************************

                    xk=(   0.00000,   0.31273,   0.00000  )

     Band symmetry, C_1 (1)     point group:

     e(  1 -  1) =    -19.42009  eV     1   --> A              
     e(  2 -  2) =    -18.62809  eV     1   --> A              
     e(  3 -  3) =    -11.29135  eV     1   --> A              
     e(  4 -  4) =    -10.06529  eV     1   --> A              
     e(  5 -  5) =     -9.96829  eV     1   --> A              
     e(  6 -  6) =     -8.72743  eV     1   --> A              
     e(  7 -  7) =     -7.75484  eV     1   --> A              
     e(  8 -  8) =     -7.55833  eV     1   --> A              
     e(  9 -  9) =     -7.05477  eV     1   --> A              
     e( 10 - 10) =     -3.91985  eV     1   --> A              
     e( 11 - 11) =     -3.68025  eV     1   --> A              
     e( 12 - 12) =     -2.96438  eV     1   --> A              
     e( 13 - 13) =     -2.02366  eV     1   --> A              
     e( 14 - 14) =      0.79476  eV     1   --> A              
     e( 15 - 15) =      0.99253  eV     1   --> A              

 **************************************************************************

 **************************************************************************

                    xk=(   0.00000,   0.33679,   0.00000  )

     Band symmetry, C_1 (1)     point group:

     e(  1 -  1) =    -19.28942  eV     1   --> A              
     e(  2 -  2) =    -18.56416  eV     1   --> A              
     e(  3 -  3) =    -11.34749  eV     1   --> A              
     e(  4 -  4) =    -10.13602  eV     1   --> A              
     e(  5 -  5) =    -10.09199  eV     1   --> A              
     e(  6 -  6) =     -8.82767  eV     1   --> A              
     e(  7 -  7) =     -7.64246  eV     1   --> A              
     e(  8 -  8) =     -7.63478  eV     1   --> A              
     e(  9 -  9) =     -7.13528  eV     1   --> A              
     e( 10 - 10) =     -3.87652  eV     1   --> A              
     e( 11 - 11) =     -3.72279  eV     1   --> A              
     e( 12 - 12) =     -2.83203  eV     1   --> A              
     e( 13 - 13) =     -1.94408  eV     1   --> A              
     e( 14 - 14) =      0.94329  eV     1   --> A              
     e( 15 - 15) =      1.16852  eV     1   --> A              

 **************************************************************************

 **************************************************************************

                    xk=(   0.00000,   0.36084,   0.00000  )

     Band symmetry, C_1 (1)     point group:

     e(  1 -  1) =    -19.15840  eV     1   --> A              
     e(  2 -  2) =    -18.50056  eV     1   --> A              
     e(  3 -  3) =    -11.43145  eV     1   --> A              
     e(  4 -  4) =    -10.29824  eV     1   --> A              
     e(  5 -  5) =    -10.10577  eV     1   --> A              
     e(  6 -  6) =     -8.92088  eV     1   --> A              
     e(  7 -  7) =     -7.72170  eV     1   --> A              
     e(  8 -  8) =     -7.51949  eV     1   --> A              
     e(  9 -  9) =     -7.18731  eV     1   --> A              
     e( 10 - 10) =     -3.81750  eV     1   --> A              
     e( 11 - 11) =     -3.75436  eV     1   --> A              
     e( 12 - 12) =     -2.69773  eV     1   --> A              
     e( 13 - 13) =     -1.87387  eV     1   --> A              
     e( 14 - 14) =      1.08083  eV     1   --> A              
     e( 15 - 15) =      1.33394  eV     1   --> A              

 **************************************************************************

 **************************************************************************

                    xk=(   0.00000,   0.38490,   0.00000  )

     Band symmetry, C_1 (1)     point group:

     e(  1 -  1) =    -19.02937  eV     1   --> A              
     e(  2 -  2) =    -18.43851  eV     1   --> A              
     e(  3 -  3) =    -11.53241  eV     1   --> A              
     e(  4 -  4) =    -10.45267  eV     1   --> A              
     e(  5 -  5) =    -10.11862  eV     1   --> A              
     e(  6 -  6) =     -9.00621  eV     1   --> A              
     e(  7 -  7) =     -7.79400  eV     1   --> A              
     e(  8 -  8) =     -7.41140  eV     1   --> A              
     e(  9 -  9) =     -7.20631  eV     1   --> A              
     e( 10 - 10) =     -3.77475  eV     1   --> A              
     e( 11 - 11) =     -3.74632  eV     1   --> A              
     e( 12 - 12) =     -2.56654  eV     1   --> A              
     e( 13 - 13) =     -1.81300  eV     1   --> A              
     e( 14 - 14) =      1.18577  eV     1   --> A              
     e( 15 - 15) =      1.47348  eV     1   --> A              

 **************************************************************************

 **************************************************************************

                    xk=(   0.00000,   0.40896,   0.00000  )

     Band symmetry, C_1 (1)     point group:

     e(  1 -  1) =    -18.90497  eV     1   --> A              
     e(  2 -  2) =    -18.37928  eV     1   --> A              
     e(  3 -  3) =    -11.64068  eV     1   --> A              
     e(  4 -  4) =    -10.59686  eV     1   --> A              
     e(  5 -  5) =    -10.13814  eV     1   --> A              
     e(  6 -  6) =     -9.08295  eV     1   --> A              
     e(  7 -  7) =     -7.85813  eV     1   --> A              
     e(  8 -  8) =     -7.31266  eV     1   --> A              
     e(  9 -  9) =     -7.19226  eV     1   --> A              
     e( 10 - 10) =     -3.78446  eV     1   --> A              
     e( 11 - 11) =     -3.66628  eV     1   --> A              
     e( 12 - 12) =     -2.44302  eV     1   --> A              
     e( 13 - 13) =     -1.76117  eV     1   --> A              
     e( 14 - 14) =      1.18355  eV     1   --> A              
     e( 15 - 15) =      1.56974  eV     1   --> A              

 **************************************************************************

 **************************************************************************

                    xk=(   0.00000,   0.43301,   0.00000  )

     Band symmetry, C_1 (1)     point group:

     e(  1 -  1) =    -18.78806  eV     1   --> A              
     e(  2 -  2) =    -18.32422  eV     1   --> A              
     e(  3 -  3) =    -11.74859  eV     1   --> A              
     e(  4 -  4) =    -10.72829  eV     1   --> A              
     e(  5 -  5) =    -10.16644  eV     1   --> A              
     e(  6 -  6) =     -9.15051  eV     1   --> A              
     e(  7 -  7) =     -7.91347  eV     1   --> A              
     e(  8 -  8) =     -7.22509  eV     1   --> A              
     e(  9 -  9) =     -7.14988  eV     1   --> A              
     e( 10 - 10) =     -3.78477  eV     1   --> A              
     e( 11 - 11) =     -3.58057  eV     1   --> A              
     e( 12 - 12) =     -2.33111  eV     1   --> A              
     e( 13 - 13) =     -1.71790  eV     1   --> A              
     e( 14 - 14) =      1.00552  eV     1   --> A              
     e( 15 - 15) =      1.61824  eV     1   --> A              

 **************************************************************************

 **************************************************************************

                    xk=(   0.00000,   0.45707,   0.00000  )

     Band symmetry, C_1 (1)     point group:

     e(  1 -  1) =    -18.68168  eV     1   --> A              
     e(  2 -  2) =    -18.27466  eV     1   --> A              
     e(  3 -  3) =    -11.85014  eV     1   --> A              
     e(  4 -  4) =    -10.84450  eV     1   --> A              
     e(  5 -  5) =    -10.20140  eV     1   --> A              
     e(  6 -  6) =     -9.20842  eV     1   --> A              
     e(  7 -  7) =     -7.95984  eV     1   --> A              
     e(  8 -  8) =     -7.15001  eV     1   --> A              
     e(  9 -  9) =     -7.08765  eV     1   --> A              
     e( 10 - 10) =     -3.77771  eV     1   --> A              
     e( 11 - 11) =     -3.49265  eV     1   --> A              
     e( 12 - 12) =     -2.23391  eV     1   --> A              
     e( 13 - 13) =     -1.68263  eV     1   --> A              
     e( 14 - 14) =      0.75424  eV     1   --> A              
     e( 15 - 15) =      1.63483  eV     1   --> A              

 **************************************************************************

 **************************************************************************

                    xk=(   0.00000,   0.48113,   0.00000  )

     Band symmetry, C_1 (1)     point group:

     e(  1 -  1) =    -18.58896  eV     1   --> A              
     e(  2 -  2) =    -18.23193  eV     1   --> A              
     e(  3 -  3) =    -11.94045  eV     1   --> A              
     e(  4 -  4) =    -10.94320  eV     1   --> A              
     e(  5 -  5) =    -10.23869  eV     1   --> A              
     e(  6 -  6) =     -9.25630  eV     1   --> A              
     e(  7 -  7) =     -7.99730  eV     1   --> A              
     e(  8 -  8) =     -7.08826  eV     1   --> A              
     e(  9 -  9) =     -7.01613  eV     1   --> A              
     e( 10 - 10) =     -3.76592  eV     1   --> A              
     e( 11 - 11) =     -3.40668  eV     1   --> A              
     e( 12 - 12) =     -2.15354  eV     1   --> A              
     e( 13 - 13) =     -1.65478  eV     1   --> A              
     e( 14 - 14) =      0.50248  eV     1   --> A              
     e( 15 - 15) =      1.63977  eV     1   --> A              

 **************************************************************************

 **************************************************************************

                    xk=(   0.00000,   0.50518,   0.00000  )

     Band symmetry, C_1 (1)     point group:

     e(  1 -  1) =    -18.51294  eV     1   --> A              
     e(  2 -  2) =    -18.19724  eV     1   --> A              
     e(  3 -  3) =    -12.01540  eV     1   --> A              
     e(  4 -  4) =    -11.02232  eV     1   --> A              
     e(  5 -  5) =    -10.27347  eV     1   --> A              
     e(  6 -  6) =     -9.29384  eV     1   --> A              
     e(  7 -  7) =     -8.02605  eV     1   --> A              
     e(  8 -  8) =     -7.04024  eV     1   --> A              
     e(  9 -  9) =     -6.94632  eV     1   --> A              
     e( 10 - 10) =     -3.75239  eV     1   --> A              
     e( 11 - 11) =     -3.32802  eV     1   --> A              
     e( 12 - 12) =     -2.09113  eV     1   --> A              
     e( 13 - 13) =     -1.63377  eV     1   --> A              
     e( 14 - 14) =      0.27949  eV     1   --> A              
     e( 15 - 15) =      1.64383  eV     1   --> A              

 **************************************************************************

 **************************************************************************

                    xk=(   0.00000,   0.52924,   0.00000  )

     Band symmetry, C_1 (1)     point group:

     e(  1 -  1) =    -18.45637  eV     1   --> A              
     e(  2 -  2) =    -18.17164  eV     1   --> A              
     e(  3 -  3) =    -12.07161  eV     1   --> A              
     e(  4 -  4) =    -11.08014  eV     1   --> A              
     e(  5 -  5) =    -10.30150  eV     1   --> A              
     e(  6 -  6) =     -9.32081  eV     1   --> A              
     e(  7 -  7) =     -8.04635  eV     1   --> A              
     e(  8 -  8) =     -7.00606  eV     1   --> A              
     e(  9 -  9) =     -6.88827  eV     1   --> A              
     e( 10 - 10) =     -3.74010  eV     1   --> A              
     e( 11 - 11) =     -3.26343  eV     1   --> A              
     e( 12 - 12) =     -2.04692  eV     1   --> A              
     e( 13 - 13) =     -1.61914  eV     1   --> A              
     e( 14 - 14) =      0.10420  eV     1   --> A              
     e( 15 - 15) =      1.64985  eV     1   --> A              

 **************************************************************************

 **************************************************************************

                    xk=(   0.00000,   0.55329,   0.00000  )

     Band symmetry, C_1 (1)     point group:

     e(  1 -  1) =    -18.42147  eV     1   --> A              
     e(  2 -  2) =    -18.15593  eV     1   --> A              
     e(  3 -  3) =    -12.10645  eV     1   --> A              
     e(  4 -  4) =    -11.11536  eV     1   --> A              
     e(  5 -  5) =    -10.31959  eV     1   --> A              
     e(  6 -  6) =     -9.33705  eV     1   --> A              
     e(  7 -  7) =     -8.05843  eV     1   --> A              
     e(  8 -  8) =     -6.98563  eV     1   --> A              
     e(  9 -  9) =     -6.84998  eV     1   --> A              
     e( 10 - 10) =     -3.73158  eV     1   --> A              
     e( 11 - 11) =     -3.22041  eV     1   --> A              
     e( 12 - 12) =     -2.02065  eV     1   --> A              
     e( 13 - 13) =     -1.61051  eV     1   --> A              
     e( 14 - 14) =     -0.00827  eV     1   --> A              
     e( 15 - 15) =      1.65557  eV     1   --> A              

 **************************************************************************

 **************************************************************************

                    xk=(   0.00000,  -0.57735,   0.00000  )

     Band symmetry, C_1 (1)     point group:

     e(  1 -  1) =    -18.40966  eV     1   --> A              
     e(  2 -  2) =    -18.15064  eV     1   --> A              
     e(  3 -  3) =    -12.11825  eV     1   --> A              
     e(  4 -  4) =    -11.12720  eV     1   --> A              
     e(  5 -  5) =    -10.32583  eV     1   --> A              
     e(  6 -  6) =     -9.34247  eV     1   --> A              
     e(  7 -  7) =     -8.06244  eV     1   --> A              
     e(  8 -  8) =     -6.97883  eV     1   --> A              
     e(  9 -  9) =     -6.83662  eV     1   --> A              
     e( 10 - 10) =     -3.72854  eV     1   --> A              
     e( 11 - 11) =     -3.20524  eV     1   --> A              
     e( 12 - 12) =     -2.01194  eV     1   --> A              
     e( 13 - 13) =     -1.60766  eV     1   --> A              
     e( 14 - 14) =     -0.04710  eV     1   --> A              
     e( 15 - 15) =      1.65793  eV     1   --> A              

 **************************************************************************

 **************************************************************************

                    xk=(   0.00000,  -0.55329,   0.00000  )

     Band symmetry, C_1 (1)     point group:

     e(  1 -  1) =    -18.42147  eV     1   --> A              
     e(  2 -  2) =    -18.15593  eV     1   --> A              
     e(  3 -  3) =    -12.10645  eV     1   --> A              
     e(  4 -  4) =    -11.11536  eV     1   --> A              
     e(  5 -  5) =    -10.31959  eV     1   --> A              
     e(  6 -  6) =     -9.33705  eV     1   --> A              
     e(  7 -  7) =     -8.05843  eV     1   --> A              
     e(  8 -  8) =     -6.98563  eV     1   --> A              
     e(  9 -  9) =     -6.84998  eV     1   --> A              
     e( 10 - 10) =     -3.73158  eV     1   --> A              
     e( 11 - 11) =     -3.22041  eV     1   --> A              
     e( 12 - 12) =     -2.02065  eV     1   --> A              
     e( 13 - 13) =     -1.61051  eV     1   --> A              
     e( 14 - 14) =     -0.00827  eV     1   --> A              
     e( 15 - 15) =      1.65557  eV     1   --> A              

 **************************************************************************

 **************************************************************************

                    xk=(   0.00000,  -0.52924,   0.00000  )

     Band symmetry, C_1 (1)     point group:

     e(  1 -  1) =    -18.45637  eV     1   --> A              
     e(  2 -  2) =    -18.17164  eV     1   --> A              
     e(  3 -  3) =    -12.07161  eV     1   --> A              
     e(  4 -  4) =    -11.08014  eV     1   --> A              
     e(  5 -  5) =    -10.30150  eV     1   --> A              
     e(  6 -  6) =     -9.32081  eV     1   --> A              
     e(  7 -  7) =     -8.04635  eV     1   --> A              
     e(  8 -  8) =     -7.00606  eV     1   --> A              
     e(  9 -  9) =     -6.88827  eV     1   --> A              
     e( 10 - 10) =     -3.74010  eV     1   --> A              
     e( 11 - 11) =     -3.26343  eV     1   --> A              
     e( 12 - 12) =     -2.04692  eV     1   --> A              
     e( 13 - 13) =     -1.61914  eV     1   --> A              
     e( 14 - 14) =      0.10420  eV     1   --> A              
     e( 15 - 15) =      1.64985  eV     1   --> A              

 **************************************************************************

 **************************************************************************

                    xk=(   0.00000,  -0.50518,   0.00000  )

     Band symmetry, C_1 (1)     point group:

     e(  1 -  1) =    -18.51294  eV     1   --> A              
     e(  2 -  2) =    -18.19724  eV     1   --> A              
     e(  3 -  3) =    -12.01540  eV     1   --> A              
     e(  4 -  4) =    -11.02232  eV     1   --> A              
     e(  5 -  5) =    -10.27347  eV     1   --> A              
     e(  6 -  6) =     -9.29384  eV     1   --> A              
     e(  7 -  7) =     -8.02605  eV     1   --> A              
     e(  8 -  8) =     -7.04024  eV     1   --> A              
     e(  9 -  9) =     -6.94632  eV     1   --> A              
     e( 10 - 10) =     -3.75239  eV     1   --> A              
     e( 11 - 11) =     -3.32802  eV     1   --> A              
     e( 12 - 12) =     -2.09113  eV     1   --> A              
     e( 13 - 13) =     -1.63377  eV     1   --> A              
     e( 14 - 14) =      0.27949  eV     1   --> A              
     e( 15 - 15) =      1.64383  eV     1   --> A              

 **************************************************************************

 **************************************************************************

                    xk=(   0.00000,  -0.48113,   0.00000  )

     Band symmetry, C_1 (1)     point group:

     e(  1 -  1) =    -18.58896  eV     1   --> A              
     e(  2 -  2) =    -18.23193  eV     1   --> A              
     e(  3 -  3) =    -11.94045  eV     1   --> A              
     e(  4 -  4) =    -10.94320  eV     1   --> A              
     e(  5 -  5) =    -10.23869  eV     1   --> A              
     e(  6 -  6) =     -9.25630  eV     1   --> A              
     e(  7 -  7) =     -7.99730  eV     1   --> A              
     e(  8 -  8) =     -7.08826  eV     1   --> A              
     e(  9 -  9) =     -7.01613  eV     1   --> A              
     e( 10 - 10) =     -3.76592  eV     1   --> A              
     e( 11 - 11) =     -3.40668  eV     1   --> A              
     e( 12 - 12) =     -2.15354  eV     1   --> A              
     e( 13 - 13) =     -1.65478  eV     1   --> A              
     e( 14 - 14) =      0.50248  eV     1   --> A              
     e( 15 - 15) =      1.63975  eV     1   --> A              

 **************************************************************************

 **************************************************************************

                    xk=(   0.00000,  -0.45707,   0.00000  )

     Band symmetry, C_1 (1)     point group:

     e(  1 -  1) =    -18.68168  eV     1   --> A              
     e(  2 -  2) =    -18.27466  eV     1   --> A              
     e(  3 -  3) =    -11.85014  eV     1   --> A              
     e(  4 -  4) =    -10.84450  eV     1   --> A              
     e(  5 -  5) =    -10.20140  eV     1   --> A              
     e(  6 -  6) =     -9.20842  eV     1   --> A              
     e(  7 -  7) =     -7.95984  eV     1   --> A              
     e(  8 -  8) =     -7.15001  eV     1   --> A              
     e(  9 -  9) =     -7.08765  eV     1   --> A              
     e( 10 - 10) =     -3.77771  eV     1   --> A              
     e( 11 - 11) =     -3.49265  eV     1   --> A              
     e( 12 - 12) =     -2.23391  eV     1   --> A              
     e( 13 - 13) =     -1.68263  eV     1   --> A              
     e( 14 - 14) =      0.75424  eV     1   --> A              
     e( 15 - 15) =      1.63480  eV     1   --> A              

 **************************************************************************

 **************************************************************************

                    xk=(   0.00000,  -0.43301,   0.00000  )

     Band symmetry, C_1 (1)     point group:

     e(  1 -  1) =    -18.78806  eV     1   --> A              
     e(  2 -  2) =    -18.32422  eV     1   --> A              
     e(  3 -  3) =    -11.74859  eV     1   --> A              
     e(  4 -  4) =    -10.72829  eV     1   --> A              
     e(  5 -  5) =    -10.16644  eV     1   --> A              
     e(  6 -  6) =     -9.15051  eV     1   --> A              
     e(  7 -  7) =     -7.91347  eV     1   --> A              
     e(  8 -  8) =     -7.22509  eV     1   --> A              
     e(  9 -  9) =     -7.14988  eV     1   --> A              
     e( 10 - 10) =     -3.78477  eV     1   --> A              
     e( 11 - 11) =     -3.58057  eV     1   --> A              
     e( 12 - 12) =     -2.33111  eV     1   --> A              
     e( 13 - 13) =     -1.71790  eV     1   --> A              
     e( 14 - 14) =      1.00552  eV     1   --> A              
     e( 15 - 15) =      1.61822  eV     1   --> A              

 **************************************************************************

 **************************************************************************

                    xk=(   0.00000,  -0.40896,   0.00000  )

     Band symmetry, C_1 (1)     point group:

     e(  1 -  1) =    -18.90497  eV     1   --> A              
     e(  2 -  2) =    -18.37928  eV     1   --> A              
     e(  3 -  3) =    -11.64068  eV     1   --> A              
     e(  4 -  4) =    -10.59686  eV     1   --> A              
     e(  5 -  5) =    -10.13814  eV     1   --> A              
     e(  6 -  6) =     -9.08295  eV     1   --> A              
     e(  7 -  7) =     -7.85813  eV     1   --> A              
     e(  8 -  8) =     -7.31266  eV     1   --> A              
     e(  9 -  9) =     -7.19226  eV     1   --> A              
     e( 10 - 10) =     -3.78446  eV     1   --> A              
     e( 11 - 11) =     -3.66628  eV     1   --> A              
     e( 12 - 12) =     -2.44302  eV     1   --> A              
     e( 13 - 13) =     -1.76117  eV     1   --> A              
     e( 14 - 14) =      1.18353  eV     1   --> A              
     e( 15 - 15) =      1.56975  eV     1   --> A              

 **************************************************************************

 **************************************************************************

                    xk=(   0.00000,  -0.38490,   0.00000  )

     Band symmetry, C_1 (1)     point group:

     e(  1 -  1) =    -19.02937  eV     1   --> A              
     e(  2 -  2) =    -18.43851  eV     1   --> A              
     e(  3 -  3) =    -11.53241  eV     1   --> A              
     e(  4 -  4) =    -10.45267  eV     1   --> A              
     e(  5 -  5) =    -10.11862  eV     1   --> A              
     e(  6 -  6) =     -9.00621  eV     1   --> A              
     e(  7 -  7) =     -7.79400  eV     1   --> A              
     e(  8 -  8) =     -7.41140  eV     1   --> A              
     e(  9 -  9) =     -7.20631  eV     1   --> A              
     e( 10 - 10) =     -3.77475  eV     1   --> A              
     e( 11 - 11) =     -3.74632  eV     1   --> A              
     e( 12 - 12) =     -2.56654  eV     1   --> A              
     e( 13 - 13) =     -1.81300  eV     1   --> A              
     e( 14 - 14) =      1.18579  eV     1   --> A              
     e( 15 - 15) =      1.47347  eV     1   --> A              

 **************************************************************************

 **************************************************************************

                    xk=(   0.00000,  -0.36084,   0.00000  )

     Band symmetry, C_1 (1)     point group:

     e(  1 -  1) =    -19.15840  eV     1   --> A              
     e(  2 -  2) =    -18.50056  eV     1   --> A              
     e(  3 -  3) =    -11.43145  eV     1   --> A              
     e(  4 -  4) =    -10.29824  eV     1   --> A              
     e(  5 -  5) =    -10.10577  eV     1   --> A              
     e(  6 -  6) =     -8.92088  eV     1   --> A              
     e(  7 -  7) =     -7.72170  eV     1   --> A              
     e(  8 -  8) =     -7.51949  eV     1   --> A              
     e(  9 -  9) =     -7.18731  eV     1   --> A              
     e( 10 - 10) =     -3.81750  eV     1   --> A              
     e( 11 - 11) =     -3.75436  eV     1   --> A              
     e( 12 - 12) =     -2.69773  eV     1   --> A              
     e( 13 - 13) =     -1.87387  eV     1   --> A              
     e( 14 - 14) =      1.08092  eV     1   --> A              
     e( 15 - 15) =      1.33392  eV     1   --> A              

 **************************************************************************

 **************************************************************************

                    xk=(   0.00000,  -0.33679,   0.00000  )

     Band symmetry, C_1 (1)     point group:

     e(  1 -  1) =    -19.28942  eV     1   --> A              
     e(  2 -  2) =    -18.56416  eV     1   --> A              
     e(  3 -  3) =    -11.34749  eV     1   --> A              
     e(  4 -  4) =    -10.13602  eV     1   --> A              
     e(  5 -  5) =    -10.09199  eV     1   --> A              
     e(  6 -  6) =     -8.82767  eV     1   --> A              
     e(  7 -  7) =     -7.64246  eV     1   --> A              
     e(  8 -  8) =     -7.63478  eV     1   --> A              
     e(  9 -  9) =     -7.13528  eV     1   --> A              
     e( 10 - 10) =     -3.87652  eV     1   --> A              
     e( 11 - 11) =     -3.72279  eV     1   --> A              
     e( 12 - 12) =     -2.83203  eV     1   --> A              
     e( 13 - 13) =     -1.94408  eV     1   --> A              
     e( 14 - 14) =      0.94326  eV     1   --> A              
     e( 15 - 15) =      1.16849  eV     1   --> A              

 **************************************************************************

 **************************************************************************

                    xk=(   0.00000,  -0.31273,   0.00000  )

     Band symmetry, C_1 (1)     point group:

     e(  1 -  1) =    -19.42009  eV     1   --> A              
     e(  2 -  2) =    -18.62809  eV     1   --> A              
     e(  3 -  3) =    -11.29135  eV     1   --> A              
     e(  4 -  4) =    -10.06529  eV     1   --> A              
     e(  5 -  5) =     -9.96829  eV     1   --> A              
     e(  6 -  6) =     -8.72743  eV     1   --> A              
     e(  7 -  7) =     -7.75484  eV     1   --> A              
     e(  8 -  8) =     -7.55833  eV     1   --> A              
     e(  9 -  9) =     -7.05477  eV     1   --> A              
     e( 10 - 10) =     -3.91985  eV     1   --> A              
     e( 11 - 11) =     -3.68025  eV     1   --> A              
     e( 12 - 12) =     -2.96438  eV     1   --> A              
     e( 13 - 13) =     -2.02366  eV     1   --> A              
     e( 14 - 14) =      0.79476  eV     1   --> A              
     e( 15 - 15) =      0.99252  eV     1   --> A              

 **************************************************************************

 **************************************************************************

                    xk=(   0.00000,  -0.28868,   0.00000  )

     Band symmetry, C_1 (1)     point group:

     e(  1 -  1) =    -19.54829  eV     1   --> A              
     e(  2 -  2) =    -18.69127  eV     1   --> A              
     e(  3 -  3) =    -11.27150  eV     1   --> A              
     e(  4 -  4) =    -10.01392  eV     1   --> A              
     e(  5 -  5) =     -9.79710  eV     1   --> A              
     e(  6 -  6) =     -8.62117  eV     1   --> A              
     e(  7 -  7) =     -7.87713  eV     1   --> A              
     e(  8 -  8) =     -7.47232  eV     1   --> A              
     e(  9 -  9) =     -6.95366  eV     1   --> A              
     e( 10 - 10) =     -3.94368  eV     1   --> A              
     e( 11 - 11) =     -3.62752  eV     1   --> A              
     e( 12 - 12) =     -3.08939  eV     1   --> A              
     e( 13 - 13) =     -2.11231  eV     1   --> A              
     e( 14 - 14) =      0.64338  eV     1   --> A              
     e( 15 - 15) =      0.81576  eV     1   --> A              

 **************************************************************************

 **************************************************************************

                    xk=(   0.00000,  -0.26462,   0.00000  )

     Band symmetry, C_1 (1)     point group:

     e(  1 -  1) =    -19.67217  eV     1   --> A              
     e(  2 -  2) =    -18.75269  eV     1   --> A              
     e(  3 -  3) =    -11.28942  eV     1   --> A              
     e(  4 -  4) =     -9.93234  eV     1   --> A              
     e(  5 -  5) =     -9.62416  eV     1   --> A              
     e(  6 -  6) =     -8.51010  eV     1   --> A              
     e(  7 -  7) =     -7.99914  eV     1   --> A              
     e(  8 -  8) =     -7.38857  eV     1   --> A              
     e(  9 -  9) =     -6.84158  eV     1   --> A              
     e( 10 - 10) =     -3.94422  eV     1   --> A              
     e( 11 - 11) =     -3.56591  eV     1   --> A              
     e( 12 - 12) =     -3.20141  eV     1   --> A              
     e( 13 - 13) =     -2.20930  eV     1   --> A              
     e( 14 - 14) =      0.49351  eV     1   --> A              
     e( 15 - 15) =      0.64419  eV     1   --> A              

 **************************************************************************

 **************************************************************************

                    xk=(   0.00000,  -0.24056,   0.00000  )

     Band symmetry, C_1 (1)     point group:

     e(  1 -  1) =    -19.79011  eV     1   --> A              
     e(  2 -  2) =    -18.81145  eV     1   --> A              
     e(  3 -  3) =    -11.33879  eV     1   --> A              
     e(  4 -  4) =     -9.82322  eV     1   --> A              
     e(  5 -  5) =     -9.45080  eV     1   --> A              
     e(  6 -  6) =     -8.39567  eV     1   --> A              
     e(  7 -  7) =     -8.11845  eV     1   --> A              
     e(  8 -  8) =     -7.31225  eV     1   --> A              
     e(  9 -  9) =     -6.72830  eV     1   --> A              
     e( 10 - 10) =     -3.91813  eV     1   --> A              
     e( 11 - 11) =     -3.49710  eV     1   --> A              
     e( 12 - 12) =     -3.29478  eV     1   --> A              
     e( 13 - 13) =     -2.31341  eV     1   --> A              
     e( 14 - 14) =      0.34813  eV     1   --> A              
     e( 15 - 15) =      0.48151  eV     1   --> A              

 **************************************************************************

 **************************************************************************

                    xk=(   0.00000,  -0.21651,   0.00000  )

     Band symmetry, C_1 (1)     point group:

     e(  1 -  1) =    -19.90069  eV     1   --> A              
     e(  2 -  2) =    -18.86677  eV     1   --> A              
     e(  3 -  3) =    -11.40934  eV     1   --> A              
     e(  4 -  4) =     -9.69407  eV     1   --> A              
     e(  5 -  5) =     -9.27804  eV     1   --> A              
     e(  6 -  6) =     -8.27958  eV     1   --> A              
     e(  7 -  7) =     -8.23284  eV     1   --> A              
     e(  8 -  8) =     -7.24921  eV     1   --> A              
     e(  9 -  9) =     -6.62234  eV     1   --> A              
     e( 10 - 10) =     -3.86338  eV     1   --> A              
     e( 11 - 11) =     -3.42310  eV     1   --> A              
     e( 12 - 12) =     -3.36428  eV     1   --> A              
     e( 13 - 13) =     -2.42291  eV     1   --> A              
     e( 14 - 14) =      0.20920  eV     1   --> A              
     e( 15 - 15) =      0.33010  eV     1   --> A              

 **************************************************************************

 **************************************************************************

                    xk=(   0.00000,  -0.19245,   0.00000  )

     Band symmetry, C_1 (1)     point group:

     e(  1 -  1) =    -20.00268  eV     1   --> A              
     e(  2 -  2) =    -18.91797  eV     1   --> A              
     e(  3 -  3) =    -11.49107  eV     1   --> A              
     e(  4 -  4) =     -9.55340  eV     1   --> A              
     e(  5 -  5) =     -9.10658  eV     1   --> A              
     e(  6 -  6) =     -8.34030  eV     1   --> A              
     e(  7 -  7) =     -8.16384  eV     1   --> A              
     e(  8 -  8) =     -7.20529  eV     1   --> A              
     e(  9 -  9) =     -6.52994  eV     1   --> A              
     e( 10 - 10) =     -3.78015  eV     1   --> A              
     e( 11 - 11) =     -3.40583  eV     1   --> A              
     e( 12 - 12) =     -3.34621  eV     1   --> A              
     e( 13 - 13) =     -2.53549  eV     1   --> A              
     e( 14 - 14) =      0.07807  eV     1   --> A              
     e( 15 - 15) =      0.19160  eV     1   --> A              

 **************************************************************************

 **************************************************************************

                    xk=(   0.00000,  -0.16839,   0.00000  )

     Band symmetry, C_1 (1)     point group:

     e(  1 -  1) =    -20.09501  eV     1   --> A              
     e(  2 -  2) =    -18.96444  eV     1   --> A              
     e(  3 -  3) =    -11.57593  eV     1   --> A              
     e(  4 -  4) =     -9.40899  eV     1   --> A              
     e(  5 -  5) =     -8.93695  eV     1   --> A              
     e(  6 -  6) =     -8.43907  eV     1   --> A              
     e(  7 -  7) =     -8.05078  eV     1   --> A              
     e(  8 -  8) =     -7.18537  eV     1   --> A              
     e(  9 -  9) =     -6.45442  eV     1   --> A              
     e( 10 - 10) =     -3.67145  eV     1   --> A              
     e( 11 - 11) =     -3.41754  eV     1   --> A              
     e( 12 - 12) =     -3.26892  eV     1   --> A              
     e( 13 - 13) =     -2.64830  eV     1   --> A              
     e( 14 - 14) =     -0.04438  eV     1   --> A              
     e( 15 - 15) =      0.06722  eV     1   --> A              

 **************************************************************************

 **************************************************************************

                    xk=(   0.00000,  -0.14434,   0.00000  )

     Band symmetry, C_1 (1)     point group:

     e(  1 -  1) =    -20.17678  eV     1   --> A              
     e(  2 -  2) =    -19.00568  eV     1   --> A              
     e(  3 -  3) =    -11.65796  eV     1   --> A              
     e(  4 -  4) =     -9.26766  eV     1   --> A              
     e(  5 -  5) =     -8.76967  eV     1   --> A              
     e(  6 -  6) =     -8.52760  eV     1   --> A              
     e(  7 -  7) =     -7.94308  eV     1   --> A              
     e(  8 -  8) =     -7.19239  eV     1   --> A              
     e(  9 -  9) =     -6.39629  eV     1   --> A              
     e( 10 - 10) =     -3.54329  eV     1   --> A              
     e( 11 - 11) =     -3.40063  eV     1   --> A              
     e( 12 - 12) =     -3.19391  eV     1   --> A              
     e( 13 - 13) =     -2.75800  eV     1   --> A              
     e( 14 - 14) =     -0.15756  eV     1   --> A              
     e( 15 - 15) =     -0.04229  eV     1   --> A              

 **************************************************************************

 **************************************************************************

                    xk=(   0.00000,  -0.12028,   0.00000  )

     Band symmetry, C_1 (1)     point group:

     e(  1 -  1) =    -20.24721  eV     1   --> A              
     e(  2 -  2) =    -19.04126  eV     1   --> A              
     e(  3 -  3) =    -11.73285  eV     1   --> A              
     e(  4 -  4) =     -9.13552  eV     1   --> A              
     e(  5 -  5) =     -8.60544  eV     1   --> A              
     e(  6 -  6) =     -8.60461  eV     1   --> A              
     e(  7 -  7) =     -7.84375  eV     1   --> A              
     e(  8 -  8) =     -7.22669  eV     1   --> A              
     e(  9 -  9) =     -6.35396  eV     1   --> A              
     e( 10 - 10) =     -3.40424  eV     1   --> A              
     e( 11 - 11) =     -3.35991  eV     1   --> A              
     e( 12 - 12) =     -3.12397  eV     1   --> A              
     e( 13 - 13) =     -2.86082  eV     1   --> A              
     e( 14 - 14) =     -0.26087  eV     1   --> A              
     e( 15 - 15) =     -0.13614  eV     1   --> A              

 **************************************************************************

 **************************************************************************

                    xk=(   0.00000,  -0.09623,   0.00000  )

     Band symmetry, C_1 (1)     point group:

     e(  1 -  1) =    -20.30569  eV     1   --> A              
     e(  2 -  2) =    -19.07083  eV     1   --> A              
     e(  3 -  3) =    -11.79751  eV     1   --> A              
     e(  4 -  4) =     -9.01816  eV     1   --> A              
     e(  5 -  5) =     -8.66903  eV     1   --> A              
     e(  6 -  6) =     -8.44549  eV     1   --> A              
     e(  7 -  7) =     -7.75602  eV     1   --> A              
     e(  8 -  8) =     -7.28596  eV     1   --> A              
     e(  9 -  9) =     -6.32470  eV     1   --> A              
     e( 10 - 10) =     -3.30363  eV     1   --> A              
     e( 11 - 11) =     -3.26475  eV     1   --> A              
     e( 12 - 12) =     -3.06188  eV     1   --> A              
     e( 13 - 13) =     -2.95274  eV     1   --> A              
     e( 14 - 14) =     -0.35345  eV     1   --> A              
     e( 15 - 15) =     -0.21383  eV     1   --> A              

 **************************************************************************

 **************************************************************************

                    xk=(   0.00000,  -0.07217,   0.00000  )

     Band symmetry, C_1 (1)     point group:

     e(  1 -  1) =    -20.35169  eV     1   --> A              
     e(  2 -  2) =    -19.09412  eV     1   --> A              
     e(  3 -  3) =    -11.84975  eV     1   --> A              
     e(  4 -  4) =     -8.92066  eV     1   --> A              
     e(  5 -  5) =     -8.71999  eV     1   --> A              
     e(  6 -  6) =     -8.29223  eV     1   --> A              
     e(  7 -  7) =     -7.68322  eV     1   --> A              
     e(  8 -  8) =     -7.36532  eV     1   --> A              
     e(  9 -  9) =     -6.30556  eV     1   --> A              
     e( 10 - 10) =     -3.24242  eV     1   --> A              
     e( 11 - 11) =     -3.13658  eV     1   --> A              
     e( 12 - 12) =     -3.02969  eV     1   --> A              
     e( 13 - 13) =     -3.01029  eV     1   --> A              
     e( 14 - 14) =     -0.43322  eV     1   --> A              
     e( 15 - 15) =     -0.27488  eV     1   --> A              

 **************************************************************************

 **************************************************************************

                    xk=(   0.00000,  -0.04811,   0.00000  )

     Band symmetry, C_1 (1)     point group:

     e(  1 -  1) =    -20.38482  eV     1   --> A              
     e(  2 -  2) =    -19.11090  eV     1   --> A              
     e(  3 -  3) =    -11.88804  eV     1   --> A              
     e(  4 -  4) =     -8.84746  eV     1   --> A              
     e(  5 -  5) =     -8.75686  eV     1   --> A              
     e(  6 -  6) =     -8.15108  eV     1   --> A              
     e(  7 -  7) =     -7.62849  eV     1   --> A              
     e(  8 -  8) =     -7.45640  eV     1   --> A              
     e(  9 -  9) =     -6.29390  eV     1   --> A              
     e( 10 - 10) =     -3.18774  eV     1   --> A              
     e( 11 - 11) =     -3.08789  eV     1   --> A              
     e( 12 - 12) =     -3.03218  eV     1   --> A              
     e( 13 - 13) =     -2.97154  eV     1   --> A              
     e( 14 - 14) =     -0.49658  eV     1   --> A              
     e( 15 - 15) =     -0.31889  eV     1   --> A              

 **************************************************************************

 **************************************************************************

                    xk=(   0.00000,  -0.02406,   0.00000  )

     Band symmetry, C_1 (1)     point group:

     e(  1 -  1) =    -20.40481  eV     1   --> A              
     e(  2 -  2) =    -19.12103  eV     1   --> A              
     e(  3 -  3) =    -11.91140  eV     1   --> A              
     e(  4 -  4) =     -8.80202  eV     1   --> A              
     e(  5 -  5) =     -8.77916  eV     1   --> A              
     e(  6 -  6) =     -8.03642  eV     1   --> A              
     e(  7 -  7) =     -7.59446  eV     1   --> A              
     e(  8 -  8) =     -7.54220  eV     1   --> A              
     e(  9 -  9) =     -6.28772  eV     1   --> A              
     e( 10 - 10) =     -3.15001  eV     1   --> A              
     e( 11 - 11) =     -3.12420  eV     1   --> A              
     e( 12 - 12) =     -2.96341  eV     1   --> A              
     e( 13 - 13) =     -2.94749  eV     1   --> A              
     e( 14 - 14) =     -0.53804  eV     1   --> A              
     e( 15 - 15) =     -0.34547  eV     1   --> A              

 **************************************************************************

 **************************************************************************

                    xk=(   0.02083,   0.01203,   0.00000  )

     Band symmetry, C_1 (1)     point group:

     e(  1 -  1) =    -20.40481  eV     1   --> A              
     e(  2 -  2) =    -19.12103  eV     1   --> A              
     e(  3 -  3) =    -11.91140  eV     1   --> A              
     e(  4 -  4) =     -8.80202  eV     1   --> A              
     e(  5 -  5) =     -8.77916  eV     1   --> A              
     e(  6 -  6) =     -8.03642  eV     1   --> A              
     e(  7 -  7) =     -7.59446  eV     1   --> A              
     e(  8 -  8) =     -7.54220  eV     1   --> A              
     e(  9 -  9) =     -6.28772  eV     1   --> A              
     e( 10 - 10) =     -3.15001  eV     1   --> A              
     e( 11 - 11) =     -3.12420  eV     1   --> A              
     e( 12 - 12) =     -2.96341  eV     1   --> A              
     e( 13 - 13) =     -2.94749  eV     1   --> A              
     e( 14 - 14) =     -0.53807  eV     1   --> A              
     e( 15 - 15) =     -0.34547  eV     1   --> A              

 **************************************************************************

 **************************************************************************

                    xk=(   0.02083,   0.03608,   0.00000  )

     Band symmetry, C_1 (1)     point group:

     e(  1 -  1) =    -20.39148  eV     1   --> A              
     e(  2 -  2) =    -19.11427  eV     1   --> A              
     e(  3 -  3) =    -11.89580  eV     1   --> A              
     e(  4 -  4) =     -8.83242  eV     1   --> A              
     e(  5 -  5) =     -8.76430  eV     1   --> A              
     e(  6 -  6) =     -8.11665  eV     1   --> A              
     e(  7 -  7) =     -7.61789  eV     1   --> A              
     e(  8 -  8) =     -7.48045  eV     1   --> A              
     e(  9 -  9) =     -6.29177  eV     1   --> A              
     e( 10 - 10) =     -3.17587  eV     1   --> A              
     e( 11 - 11) =     -3.09962  eV     1   --> A              
     e( 12 - 12) =     -3.00965  eV     1   --> A              
     e( 13 - 13) =     -2.96375  eV     1   --> A              
     e( 14 - 14) =     -0.51007  eV     1   --> A              
     e( 15 - 15) =     -0.32773  eV     1   --> A              

 **************************************************************************

 **************************************************************************

                    xk=(   0.02083,   0.06014,   0.00000  )

     Band symmetry, C_1 (1)     point group:

     e(  1 -  1) =    -20.36491  eV     1   --> A              
     e(  2 -  2) =    -19.10082  eV     1   --> A              
     e(  3 -  3) =    -11.86497  eV     1   --> A              
     e(  4 -  4) =     -8.89168  eV     1   --> A              
     e(  5 -  5) =     -8.73477  eV     1   --> A              
     e(  6 -  6) =     -8.23985  eV     1   --> A              
     e(  7 -  7) =     -7.66401  eV     1   --> A              
     e(  8 -  8) =     -7.39490  eV     1   --> A              
     e(  9 -  9) =     -6.30069  eV     1   --> A              
     e( 10 - 10) =     -3.22277  eV     1   --> A              
     e( 11 - 11) =     -3.09573  eV     1   --> A              
     e( 12 - 12) =     -3.05167  eV     1   --> A              
     e( 13 - 13) =     -2.99557  eV     1   --> A              
     e( 14 - 14) =     -0.45778  eV     1   --> A              
     e( 15 - 15) =     -0.29243  eV     1   --> A              

 **************************************************************************

 **************************************************************************

                    xk=(   0.02083,   0.08420,   0.00000  )

     Band symmetry, C_1 (1)     point group:

     e(  1 -  1) =    -20.32535  eV     1   --> A              
     e(  2 -  2) =    -19.08078  eV     1   --> A              
     e(  3 -  3) =    -11.81967  eV     1   --> A              
     e(  4 -  4) =     -8.97691  eV     1   --> A              
     e(  5 -  5) =     -8.69096  eV     1   --> A              
     e(  6 -  6) =     -8.38271  eV     1   --> A              
     e(  7 -  7) =     -7.73030  eV     1   --> A              
     e(  8 -  8) =     -7.31131  eV     1   --> A              
     e(  9 -  9) =     -6.31607  eV     1   --> A              
     e( 10 - 10) =     -3.28173  eV     1   --> A              
     e( 11 - 11) =     -3.21129  eV     1   --> A              
     e( 12 - 12) =     -3.04130  eV     1   --> A              
     e( 13 - 13) =     -2.98315  eV     1   --> A              
     e( 14 - 14) =     -0.38647  eV     1   --> A              
     e( 15 - 15) =     -0.23990  eV     1   --> A              

 **************************************************************************

 **************************************************************************

                    xk=(   0.02083,   0.10825,   0.00000  )

     Band symmetry, C_1 (1)     point group:

     e(  1 -  1) =    -20.27311  eV     1   --> A              
     e(  2 -  2) =    -19.05435  eV     1   --> A              
     e(  3 -  3) =    -11.76117  eV     1   --> A              
     e(  4 -  4) =     -9.08417  eV     1   --> A              
     e(  5 -  5) =     -8.63344  eV     1   --> A              
     e(  6 -  6) =     -8.53568  eV     1   --> A              
     e(  7 -  7) =     -7.81361  eV     1   --> A              
     e(  8 -  8) =     -7.24220  eV     1   --> A              
     e(  9 -  9) =     -6.34025  eV     1   --> A              
     e( 10 - 10) =     -3.34432  eV     1   --> A              
     e( 11 - 11) =     -3.34171  eV     1   --> A              
     e( 12 - 12) =     -3.09870  eV     1   --> A              
     e( 13 - 13) =     -2.89761  eV     1   --> A              
     e( 14 - 14) =     -0.30059  eV     1   --> A              
     e( 15 - 15) =     -0.17052  eV     1   --> A              

 **************************************************************************

 **************************************************************************

                    xk=(   0.02083,   0.13231,   0.00000  )

     Band symmetry, C_1 (1)     point group:

     e(  1 -  1) =    -20.20865  eV     1   --> A              
     e(  2 -  2) =    -19.02177  eV     1   --> A              
     e(  3 -  3) =    -11.69129  eV     1   --> A              
     e(  4 -  4) =     -9.20869  eV     1   --> A              
     e(  5 -  5) =     -8.69471  eV     1   --> A              
     e(  6 -  6) =     -8.56298  eV     1   --> A              
     e(  7 -  7) =     -7.91046  eV     1   --> A              
     e(  8 -  8) =     -7.19462  eV     1   --> A              
     e(  9 -  9) =     -6.37602  eV     1   --> A              
     e( 10 - 10) =     -3.48291  eV     1   --> A              
     e( 11 - 11) =     -3.39157  eV     1   --> A              
     e( 12 - 12) =     -3.16516  eV     1   --> A              
     e( 13 - 13) =     -2.79909  eV     1   --> A              
     e( 14 - 14) =     -0.20288  eV     1   --> A              
     e( 15 - 15) =     -0.08472  eV     1   --> A              

 **************************************************************************

 **************************************************************************

                    xk=(   0.02083,   0.15637,   0.00000  )

     Band symmetry, C_1 (1)     point group:

     e(  1 -  1) =    -20.13254  eV     1   --> A              
     e(  2 -  2) =    -18.98335  eV     1   --> A              
     e(  3 -  3) =    -11.61263  eV     1   --> A              
     e(  4 -  4) =     -9.34516  eV     1   --> A              
     e(  5 -  5) =     -8.85786  eV     1   --> A              
     e(  6 -  6) =     -8.48058  eV     1   --> A              
     e(  7 -  7) =     -8.01731  eV     1   --> A              
     e(  8 -  8) =     -7.17265  eV     1   --> A              
     e(  9 -  9) =     -6.42626  eV     1   --> A              
     e( 10 - 10) =     -3.61605  eV     1   --> A              
     e( 11 - 11) =     -3.42175  eV     1   --> A              
     e( 12 - 12) =     -3.23782  eV     1   --> A              
     e( 13 - 13) =     -2.69171  eV     1   --> A              
     e( 14 - 14) =     -0.09474  eV     1   --> A              
     e( 15 - 15) =      0.01700  eV     1   --> A              

 **************************************************************************

 **************************************************************************

                    xk=(   0.02083,   0.18042,   0.00000  )

     Band symmetry, C_1 (1)     point group:

     e(  1 -  1) =    -20.04548  eV     1   --> A              
     e(  2 -  2) =    -18.93948  eV     1   --> A              
     e(  3 -  3) =    -11.52885  eV     1   --> A              
     e(  4 -  4) =     -9.48773  eV     1   --> A              
     e(  5 -  5) =     -9.02414  eV     1   --> A              
     e(  6 -  6) =     -8.38749  eV     1   --> A              
     e(  7 -  7) =     -8.13076  eV     1   --> A              
     e(  8 -  8) =     -7.17764  eV     1   --> A              
     e(  9 -  9) =     -6.49318  eV     1   --> A              
     e( 10 - 10) =     -3.73430  eV     1   --> A              
     e( 11 - 11) =     -3.42560  eV     1   --> A              
     e( 12 - 12) =     -3.31379  eV     1   --> A              
     e( 13 - 13) =     -2.57943  eV     1   --> A              
     e( 14 - 14) =      0.02312  eV     1   --> A              
     e( 15 - 15) =      0.13402  eV     1   --> A              

 **************************************************************************

 **************************************************************************

                    xk=(   0.02083,   0.20448,   0.00000  )

     Band symmetry, C_1 (1)     point group:

     e(  1 -  1) =    -19.94830  eV     1   --> A              
     e(  2 -  2) =    -18.89063  eV     1   --> A              
     e(  3 -  3) =    -11.44503  eV     1   --> A              
     e(  4 -  4) =     -9.62998  eV     1   --> A              
     e(  5 -  5) =     -9.19297  eV     1   --> A              
     e(  6 -  6) =     -8.28518  eV     1   --> A              
     e(  7 -  7) =     -8.24775  eV     1   --> A              
     e(  8 -  8) =     -7.20828  eV     1   --> A              
     e(  9 -  9) =     -6.57734  eV     1   --> A              
     e( 10 - 10) =     -3.83040  eV     1   --> A              
     e( 11 - 11) =     -3.40001  eV     1   --> A              
     e( 12 - 12) =     -3.39021  eV     1   --> A              
     e( 13 - 13) =     -2.46584  eV     1   --> A              
     e( 14 - 14) =      0.15011  eV     1   --> A              
     e( 15 - 15) =      0.26560  eV     1   --> A              

 **************************************************************************

 **************************************************************************

                    xk=(   0.02083,   0.22853,   0.00000  )

     Band symmetry, C_1 (1)     point group:

     e(  1 -  1) =    -19.84200  eV     1   --> A              
     e(  2 -  2) =    -18.83735  eV     1   --> A              
     e(  3 -  3) =    -11.36814  eV     1   --> A              
     e(  4 -  4) =     -9.76463  eV     1   --> A              
     e(  5 -  5) =     -9.36389  eV     1   --> A              
     e(  6 -  6) =     -8.36553  eV     1   --> A              
     e(  7 -  7) =     -8.17543  eV     1   --> A              
     e(  8 -  8) =     -7.26088  eV     1   --> A              
     e(  9 -  9) =     -6.67677  eV     1   --> A              
     e( 10 - 10) =     -3.89992  eV     1   --> A              
     e( 11 - 11) =     -3.46435  eV     1   --> A              
[...]
     e( 15 - 15) =      1.61599  eV     1   --> A              

 **************************************************************************

 **************************************************************************

                    xk=(  -0.02083,  -0.39693,   0.00000  )

     Band symmetry, C_1 (1)     point group:

     e(  1 -  1) =    -18.96316  eV     1   --> A              
     e(  2 -  2) =    -18.40661  eV     1   --> A              
     e(  3 -  3) =    -11.58295  eV     1   --> A              
     e(  4 -  4) =    -10.52737  eV     1   --> A              
     e(  5 -  5) =    -10.12369  eV     1   --> A              
     e(  6 -  6) =     -9.06283  eV     1   --> A              
     e(  7 -  7) =     -7.81418  eV     1   --> A              
     e(  8 -  8) =     -7.41921  eV     1   --> A              
     e(  9 -  9) =     -7.15921  eV     1   --> A              
     e( 10 - 10) =     -3.81538  eV     1   --> A              
     e( 11 - 11) =     -3.67289  eV     1   --> A              
     e( 12 - 12) =     -2.51943  eV     1   --> A              
     e( 13 - 13) =     -1.77689  eV     1   --> A              
     e( 14 - 14) =      1.21823  eV     1   --> A              
     e( 15 - 15) =      1.53977  eV     1   --> A              

 **************************************************************************

 **************************************************************************

                    xk=(  -0.02083,  -0.37287,   0.00000  )

     Band symmetry, C_1 (1)     point group:

     e(  1 -  1) =    -19.09003  eV     1   --> A              
     e(  2 -  2) =    -18.46737  eV     1   --> A              
     e(  3 -  3) =    -11.47777  eV     1   --> A              
     e(  4 -  4) =    -10.37697  eV     1   --> A              
     e(  5 -  5) =    -10.10842  eV     1   --> A              
     e(  6 -  6) =     -8.98480  eV     1   --> A              
     e(  7 -  7) =     -7.74369  eV     1   --> A              
     e(  8 -  8) =     -7.50277  eV     1   --> A              
     e(  9 -  9) =     -7.17486  eV     1   --> A              
     e( 10 - 10) =     -3.83977  eV     1   --> A              
     e( 11 - 11) =     -3.71107  eV     1   --> A              
     e( 12 - 12) =     -2.64817  eV     1   --> A              
     e( 13 - 13) =     -1.83094  eV     1   --> A              
     e( 14 - 14) =      1.15171  eV     1   --> A              
     e( 15 - 15) =      1.41708  eV     1   --> A              

 **************************************************************************

 **************************************************************************

                    xk=(  -0.02083,  -0.34882,   0.00000  )

     Band symmetry, C_1 (1)     point group:

     e(  1 -  1) =    -19.22018  eV     1   --> A              
     e(  2 -  2) =    -18.53029  eV     1   --> A              
     e(  3 -  3) =    -11.38431  eV     1   --> A              
     e(  4 -  4) =    -10.21760  eV     1   --> A              
     e(  5 -  5) =    -10.09703  eV     1   --> A              
     e(  6 -  6) =     -8.89831  eV     1   --> A              
     e(  7 -  7) =     -7.66584  eV     1   --> A              
     e(  8 -  8) =     -7.60002  eV     1   --> A              
     e(  9 -  9) =     -7.15154  eV     1   --> A              
     e( 10 - 10) =     -3.87946  eV     1   --> A              
     e( 11 - 11) =     -3.71241  eV     1   --> A              
     e( 12 - 12) =     -2.78166  eV     1   --> A              
     e( 13 - 13) =     -1.89505  eV     1   --> A              
     e( 14 - 14) =      1.02487  eV     1   --> A              
     e( 15 - 15) =      1.26083  eV     1   --> A              

 **************************************************************************

 **************************************************************************

                    xk=(  -0.02083,  -0.32476,   0.00000  )

     Band symmetry, C_1 (1)     point group:

     e(  1 -  1) =    -19.35113  eV     1   --> A              
     e(  2 -  2) =    -18.59414  eV     1   --> A              
     e(  3 -  3) =    -11.31299  eV     1   --> A              
     e(  4 -  4) =    -10.07941  eV     1   --> A              
     e(  5 -  5) =    -10.05172  eV     1   --> A              
     e(  6 -  6) =     -8.80393  eV     1   --> A              
     e(  7 -  7) =     -7.70845  eV     1   --> A              
     e(  8 -  8) =     -7.58241  eV     1   --> A              
     e(  9 -  9) =     -7.09193  eV     1   --> A              
     e( 10 - 10) =     -3.91938  eV     1   --> A              
     e( 11 - 11) =     -3.68838  eV     1   --> A              
     e( 12 - 12) =     -2.91529  eV     1   --> A              
     e( 13 - 13) =     -1.96916  eV     1   --> A              
     e( 14 - 14) =      0.87946  eV     1   --> A              
     e( 15 - 15) =      1.08793  eV     1   --> A              

 **************************************************************************

 **************************************************************************

                    xk=(  -0.02083,  -0.30070,   0.00000  )

     Band symmetry, C_1 (1)     point group:

     e(  1 -  1) =    -19.48064  eV     1   --> A              
     e(  2 -  2) =    -18.65777  eV     1   --> A              
     e(  3 -  3) =    -11.27405  eV     1   --> A              
     e(  4 -  4) =    -10.04288  eV     1   --> A              
     e(  5 -  5) =     -9.88161  eV     1   --> A              
     e(  6 -  6) =     -8.70237  eV     1   --> A              
     e(  7 -  7) =     -7.82378  eV     1   --> A              
     e(  8 -  8) =     -7.49605  eV     1   --> A              
     e(  9 -  9) =     -7.00430  eV     1   --> A              
     e( 10 - 10) =     -3.94721  eV     1   --> A              
     e( 11 - 11) =     -3.64812  eV     1   --> A              
     e( 12 - 12) =     -3.04395  eV     1   --> A              
     e( 13 - 13) =     -2.05297  eV     1   --> A              
     e( 14 - 14) =      0.72804  eV     1   --> A              
     e( 15 - 15) =      0.91036  eV     1   --> A              

 **************************************************************************

 **************************************************************************

                    xk=(  -0.02083,  -0.27665,   0.00000  )

     Band symmetry, C_1 (1)     point group:

     e(  1 -  1) =    -19.60675  eV     1   --> A              
     e(  2 -  2) =    -18.72013  eV     1   --> A              
     e(  3 -  3) =    -11.27300  eV     1   --> A              
     e(  4 -  4) =     -9.97803  eV     1   --> A              
     e(  5 -  5) =     -9.70925  eV     1   --> A              
     e(  6 -  6) =     -8.59458  eV     1   --> A              
     e(  7 -  7) =     -7.94214  eV     1   --> A              
     e(  8 -  8) =     -7.41041  eV     1   --> A              
     e(  9 -  9) =     -6.89895  eV     1   --> A              
     e( 10 - 10) =     -3.95612  eV     1   --> A              
     e( 11 - 11) =     -3.59567  eV     1   --> A              
     e( 12 - 12) =     -3.16222  eV     1   --> A              
     e( 13 - 13) =     -2.14584  eV     1   --> A              
     e( 14 - 14) =      0.57643  eV     1   --> A              
     e( 15 - 15) =      0.73555  eV     1   --> A              

 **************************************************************************

 **************************************************************************

                    xk=(  -0.02083,  -0.25259,   0.00000  )

     Band symmetry, C_1 (1)     point group:

     e(  1 -  1) =    -19.72770  eV     1   --> A              
     e(  2 -  2) =    -18.78027  eV     1   --> A              
     e(  3 -  3) =    -11.30731  eV     1   --> A              
     e(  4 -  4) =     -9.88343  eV     1   --> A              
     e(  5 -  5) =     -9.53627  eV     1   --> A              
     e(  6 -  6) =     -8.48178  eV     1   --> A              
     e(  7 -  7) =     -8.06028  eV     1   --> A              
     e(  8 -  8) =     -7.33018  eV     1   --> A              
     e(  9 -  9) =     -6.78654  eV     1   --> A              
     e( 10 - 10) =     -3.94142  eV     1   --> A              
     e( 11 - 11) =     -3.53364  eV     1   --> A              
     e( 12 - 12) =     -3.26449  eV     1   --> A              
     e( 13 - 13) =     -2.24672  eV     1   --> A              
     e( 14 - 14) =      0.42815  eV     1   --> A              
     e( 15 - 15) =      0.56805  eV     1   --> A              

 **************************************************************************

 **************************************************************************

                    xk=(  -0.02083,  -0.22853,   0.00000  )

     Band symmetry, C_1 (1)     point group:

     e(  1 -  1) =    -19.84200  eV     1   --> A              
     e(  2 -  2) =    -18.83735  eV     1   --> A              
     e(  3 -  3) =    -11.36814  eV     1   --> A              
     e(  4 -  4) =     -9.76463  eV     1   --> A              
     e(  5 -  5) =     -9.36389  eV     1   --> A              
     e(  6 -  6) =     -8.36553  eV     1   --> A              
     e(  7 -  7) =     -8.17543  eV     1   --> A              
     e(  8 -  8) =     -7.26088  eV     1   --> A              
     e(  9 -  9) =     -6.67677  eV     1   --> A              
     e( 10 - 10) =     -3.89992  eV     1   --> A              
     e( 11 - 11) =     -3.46435  eV     1   --> A              
     e( 12 - 12) =     -3.34531  eV     1   --> A              
     e( 13 - 13) =     -2.35407  eV     1   --> A              
     e( 14 - 14) =      0.28544  eV     1   --> A              
     e( 15 - 15) =      0.41074  eV     1   --> A              

 **************************************************************************

 **************************************************************************

                    xk=(  -0.02083,  -0.20448,   0.00000  )

     Band symmetry, C_1 (1)     point group:

     e(  1 -  1) =    -19.94830  eV     1   --> A              
     e(  2 -  2) =    -18.89063  eV     1   --> A              
     e(  3 -  3) =    -11.44503  eV     1   --> A              
     e(  4 -  4) =     -9.62998  eV     1   --> A              
     e(  5 -  5) =     -9.19297  eV     1   --> A              
     e(  6 -  6) =     -8.28518  eV     1   --> A              
     e(  7 -  7) =     -8.24775  eV     1   --> A              
     e(  8 -  8) =     -7.20828  eV     1   --> A              
     e(  9 -  9) =     -6.57734  eV     1   --> A              
     e( 10 - 10) =     -3.83040  eV     1   --> A              
     e( 11 - 11) =     -3.40001  eV     1   --> A              
     e( 12 - 12) =     -3.39021  eV     1   --> A              
     e( 13 - 13) =     -2.46584  eV     1   --> A              
     e( 14 - 14) =      0.15009  eV     1   --> A              
     e( 15 - 15) =      0.26560  eV     1   --> A              

 **************************************************************************

 **************************************************************************

                    xk=(  -0.02083,  -0.18042,   0.00000  )

     Band symmetry, C_1 (1)     point group:

     e(  1 -  1) =    -20.04548  eV     1   --> A              
     e(  2 -  2) =    -18.93948  eV     1   --> A              
     e(  3 -  3) =    -11.52885  eV     1   --> A              
     e(  4 -  4) =     -9.48773  eV     1   --> A              
     e(  5 -  5) =     -9.02414  eV     1   --> A              
     e(  6 -  6) =     -8.38749  eV     1   --> A              
     e(  7 -  7) =     -8.13076  eV     1   --> A              
     e(  8 -  8) =     -7.17764  eV     1   --> A              
     e(  9 -  9) =     -6.49318  eV     1   --> A              
     e( 10 - 10) =     -3.73430  eV     1   --> A              
     e( 11 - 11) =     -3.42560  eV     1   --> A              
     e( 12 - 12) =     -3.31379  eV     1   --> A              
     e( 13 - 13) =     -2.57943  eV     1   --> A              
     e( 14 - 14) =      0.02310  eV     1   --> A              
     e( 15 - 15) =      0.13402  eV     1   --> A              

 **************************************************************************

 **************************************************************************

                    xk=(  -0.02083,  -0.15637,   0.00000  )

     Band symmetry, C_1 (1)     point group:

     e(  1 -  1) =    -20.13254  eV     1   --> A              
     e(  2 -  2) =    -18.98335  eV     1   --> A              
     e(  3 -  3) =    -11.61263  eV     1   --> A              
     e(  4 -  4) =     -9.34516  eV     1   --> A              
     e(  5 -  5) =     -8.85786  eV     1   --> A              
     e(  6 -  6) =     -8.48058  eV     1   --> A              
     e(  7 -  7) =     -8.01731  eV     1   --> A              
     e(  8 -  8) =     -7.17265  eV     1   --> A              
     e(  9 -  9) =     -6.42626  eV     1   --> A              
     e( 10 - 10) =     -3.61605  eV     1   --> A              
     e( 11 - 11) =     -3.42175  eV     1   --> A              
     e( 12 - 12) =     -3.23782  eV     1   --> A              
     e( 13 - 13) =     -2.69171  eV     1   --> A              
     e( 14 - 14) =     -0.09468  eV     1   --> A              
     e( 15 - 15) =      0.01699  eV     1   --> A              

 **************************************************************************

 **************************************************************************

                    xk=(  -0.02083,  -0.13231,   0.00000  )

     Band symmetry, C_1 (1)     point group:

     e(  1 -  1) =    -20.20865  eV     1   --> A              
     e(  2 -  2) =    -19.02177  eV     1   --> A              
     e(  3 -  3) =    -11.69129  eV     1   --> A              
     e(  4 -  4) =     -9.20869  eV     1   --> A              
     e(  5 -  5) =     -8.69471  eV     1   --> A              
     e(  6 -  6) =     -8.56298  eV     1   --> A              
     e(  7 -  7) =     -7.91046  eV     1   --> A              
     e(  8 -  8) =     -7.19462  eV     1   --> A              
     e(  9 -  9) =     -6.37602  eV     1   --> A              
     e( 10 - 10) =     -3.48291  eV     1   --> A              
     e( 11 - 11) =     -3.39157  eV     1   --> A              
     e( 12 - 12) =     -3.16516  eV     1   --> A              
     e( 13 - 13) =     -2.79909  eV     1   --> A              
     e( 14 - 14) =     -0.20288  eV     1   --> A              
     e( 15 - 15) =     -0.08472  eV     1   --> A              

 **************************************************************************

 **************************************************************************

                    xk=(  -0.02083,  -0.10825,   0.00000  )

     Band symmetry, C_1 (1)     point group:

     e(  1 -  1) =    -20.27311  eV     1   --> A              
     e(  2 -  2) =    -19.05435  eV     1   --> A              
     e(  3 -  3) =    -11.76117  eV     1   --> A              
     e(  4 -  4) =     -9.08417  eV     1   --> A              
     e(  5 -  5) =     -8.63344  eV     1   --> A              
     e(  6 -  6) =     -8.53568  eV     1   --> A              
     e(  7 -  7) =     -7.81361  eV     1   --> A              
     e(  8 -  8) =     -7.24220  eV     1   --> A              
     e(  9 -  9) =     -6.34025  eV     1   --> A              
     e( 10 - 10) =     -3.34432  eV     1   --> A              
     e( 11 - 11) =     -3.34171  eV     1   --> A              
     e( 12 - 12) =     -3.09870  eV     1   --> A              
     e( 13 - 13) =     -2.89761  eV     1   --> A              
     e( 14 - 14) =     -0.30059  eV     1   --> A              
     e( 15 - 15) =     -0.17051  eV     1   --> A              

 **************************************************************************

 **************************************************************************

                    xk=(  -0.02083,  -0.08420,   0.00000  )

     Band symmetry, C_1 (1)     point group:

     e(  1 -  1) =    -20.32535  eV     1   --> A              
     e(  2 -  2) =    -19.08078  eV     1   --> A              
     e(  3 -  3) =    -11.81967  eV     1   --> A              
     e(  4 -  4) =     -8.97691  eV     1   --> A              
     e(  5 -  5) =     -8.69096  eV     1   --> A              
     e(  6 -  6) =     -8.38271  eV     1   --> A              
     e(  7 -  7) =     -7.73030  eV     1   --> A              
     e(  8 -  8) =     -7.31131  eV     1   --> A              
     e(  9 -  9) =     -6.31607  eV     1   --> A              
     e( 10 - 10) =     -3.28173  eV     1   --> A              
     e( 11 - 11) =     -3.21129  eV     1   --> A              
     e( 12 - 12) =     -3.04130  eV     1   --> A              
     e( 13 - 13) =     -2.98315  eV     1   --> A              
     e( 14 - 14) =     -0.38646  eV     1   --> A              
     e( 15 - 15) =     -0.23990  eV     1   --> A              

 **************************************************************************

 **************************************************************************

                    xk=(  -0.02083,  -0.06014,   0.00000  )

     Band symmetry, C_1 (1)     point group:

     e(  1 -  1) =    -20.36491  eV     1   --> A              
     e(  2 -  2) =    -19.10082  eV     1   --> A              
     e(  3 -  3) =    -11.86497  eV     1   --> A              
     e(  4 -  4) =     -8.89168  eV     1   --> A              
     e(  5 -  5) =     -8.73477  eV     1   --> A              
     e(  6 -  6) =     -8.23985  eV     1   --> A              
     e(  7 -  7) =     -7.66401  eV     1   --> A              
     e(  8 -  8) =     -7.39490  eV     1   --> A              
     e(  9 -  9) =     -6.30069  eV     1   --> A              
     e( 10 - 10) =     -3.22277  eV     1   --> A              
     e( 11 - 11) =     -3.09573  eV     1   --> A              
     e( 12 - 12) =     -3.05167  eV     1   --> A              
     e( 13 - 13) =     -2.99557  eV     1   --> A              
     e( 14 - 14) =     -0.45773  eV     1   --> A              
     e( 15 - 15) =     -0.29244  eV     1   --> A              

 **************************************************************************

 **************************************************************************

                    xk=(  -0.02083,  -0.03608,   0.00000  )

     Band symmetry, C_1 (1)     point group:

     e(  1 -  1) =    -20.39148  eV     1   --> A              
     e(  2 -  2) =    -19.11427  eV     1   --> A              
     e(  3 -  3) =    -11.89580  eV     1   --> A              
     e(  4 -  4) =     -8.83242  eV     1   --> A              
     e(  5 -  5) =     -8.76430  eV     1   --> A              
     e(  6 -  6) =     -8.11665  eV     1   --> A              
     e(  7 -  7) =     -7.61789  eV     1   --> A              
     e(  8 -  8) =     -7.48045  eV     1   --> A              
     e(  9 -  9) =     -6.29177  eV     1   --> A              
     e( 10 - 10) =     -3.17587  eV     1   --> A              
     e( 11 - 11) =     -3.09962  eV     1   --> A              
     e( 12 - 12) =     -3.00965  eV     1   --> A              
     e( 13 - 13) =     -2.96375  eV     1   --> A              
     e( 14 - 14) =     -0.51008  eV     1   --> A              
     e( 15 - 15) =     -0.32773  eV     1   --> A              

 **************************************************************************
 
     BANDS        :     44.40s CPU     48.02s WALL

 
   This run was terminated on:  14:12:25   1Feb2026            

=------------------------------------------------------------------------------=
   JOB DONE.
=------------------------------------------------------------------------------=
